SiO2                                    
           1
     8.719593    0.000000    0.000000
     0.000000    9.322992    0.000000
     0.000000    0.000000    9.465057
   Si   O 
  24  48
Direct configuration=     1
   0.61019670  0.28069619  0.11431707
   0.96041276  0.97429524  0.04183499
   0.45831425  0.71719333  0.09096773
   0.99628494  0.49975048  0.05941660
   0.47340830  0.26214286  0.61474859
   0.85631338  0.89671809  0.65274109
   0.60104231  0.76913810  0.63067073
   0.93861533  0.40000762  0.57771576
   0.14048783  0.60164952  0.41534897
   0.69762063  0.38031619  0.40477955
   0.33625230  0.21577809  0.31211914
   0.72582206  0.88844286  0.38189681
   0.25739623  0.62104095  0.90265197
   0.74020230  0.37456381  0.87302251
   0.19773791  0.09848476  0.90453096
   0.67584560  0.87314190  0.92533021
   0.07806751  0.21904381  0.14639024
   0.52638769  0.00241294  0.18871764
   0.96690840  0.75259619  0.22133677
   0.45047243  0.52052571  0.32587523
   0.93723657  0.17310191  0.74374109
   0.44283325  0.97771429  0.77350657
   0.05602610  0.67023524  0.66397561
   0.49375875  0.51785810  0.73136210
   0.57218816  0.39021048  0.20431332
   0.96738191  0.12975809  0.09045704
   0.43543132  0.89285333  0.14107599
   0.92860456  0.59950571  0.13293340
   0.42347665  0.39736476  0.67048781
   0.90772766  0.02854343  0.71986210
   0.50917764  0.89067524  0.67412570
   0.04091646  0.51934952  0.63942402
   0.27479365  0.54607143  0.39047186
   0.53334156  0.48295714  0.44918293
   0.38186337  0.36339524  0.26091651
   0.82779526  0.81898191  0.28707692
   0.38106198  0.53529143  0.82793433
   0.83001512  0.26103333  0.79715666
   0.31688246  0.97040000  0.86116510
   0.73805269  0.79771810  0.78274296
   0.99873697  0.47116476  0.43206473
   0.62101904  0.29255048  0.50719606
   0.39289854  0.06706886  0.26778236
   0.64462495  0.79306857  0.46495403
   0.14101428  0.54648476  0.99096623
   0.63744196  0.33343619  0.98848968
   0.07044014  0.97236190  0.93229456
   0.58020309  0.77280857  0.01372814
   0.02703101  0.37372381  0.11793996
   0.56593282  0.14712857  0.13662477
   0.00277182  0.89076190  0.14429831
   0.49013365  0.63534000  0.20503002
   0.97519420  0.25486857  0.60506567
   0.44274771  0.12543905  0.69194840
   0.93363998  0.76735429  0.64301876
   0.48713582  0.66413524  0.62916135
   0.18026921  0.21779238  0.29310038
   0.64174218  0.98354286  0.31707411
   0.06871608  0.69946286  0.32981144
   0.75073850  0.30984000  0.24258724
   0.06154195  0.17187714  0.83626548
   0.57921026  0.97553333  0.86671670
   0.15802985  0.68280190  0.78838555
   0.64824496  0.42592381  0.75966135
   0.16849172  0.17915524  0.02705131
   0.77109506  0.94670762  0.02023546
   0.34601257  0.71166762  0.97015948
   0.86296075  0.43438381  0.96723265
   0.38503431  0.22214762  0.48681520
   0.76586412  0.95326667  0.53102439
   0.13630879  0.67382286  0.53892683
   0.81197517  0.45359333  0.50094090
Direct configuration=     2
   0.60887864  0.27997131  0.11570466
   0.95679340  0.97564846  0.04444350
   0.46054126  0.71378340  0.09084996
   0.99317200  0.50006963  0.05913747
   0.47840767  0.26180002  0.61678661
   0.85649194  0.89580612  0.65259890
   0.60602333  0.77060042  0.63060366
   0.93946471  0.39915064  0.57714979
   0.13834677  0.59997402  0.41659072
   0.69837875  0.38059118  0.40560462
   0.33262946  0.21600026  0.31200137
   0.72690581  0.88863678  0.38262777
   0.25789093  0.62226450  0.90323978
   0.74086242  0.37405807  0.87480923
   0.19775848  0.09831307  0.90342958
   0.67522034  0.87504878  0.92422762
   0.07756365  0.22123198  0.14764818
   0.52583140  0.00057541  0.18776090
   0.96793143  0.75268911  0.22238663
   0.45041109  0.51992207  0.32524238
   0.93563066  0.17409876  0.74258297
   0.44278772  0.97579049  0.77491778
   0.05496878  0.67291728  0.66464779
   0.49236465  0.51692011  0.73206191
   0.56898810  0.39216911  0.20318609
   0.96918256  0.13046673  0.09009472
   0.43516897  0.89342064  0.14276239
   0.92805311  0.59865923  0.13328183
   0.42478252  0.39980416  0.67132410
   0.90482437  0.02877783  0.71805072
   0.50880613  0.89291397  0.67238540
   0.04541538  0.52278369  0.63673391
   0.27892854  0.54728772  0.38660623
   0.53592401  0.48367067  0.45057764
   0.37926832  0.36046066  0.26051684
   0.83093882  0.81944386  0.28899130
   0.38186956  0.53357420  0.82828968
   0.82618177  0.26065167  0.79964640
   0.31620315  0.97239265  0.86520796
   0.73908967  0.79665739  0.78540174
   0.99755115  0.46972089  0.43173913
   0.61713005  0.28896055  0.50722514
   0.38987849  0.06737529  0.27231329
   0.64667213  0.79252423  0.46682842
   0.14181183  0.54509800  0.98963042
   0.63736078  0.32903626  0.98502858
   0.07098839  0.97048869  0.93016321
   0.57645661  0.77265423  0.01319604
   0.02975749  0.37255113  0.11409240
   0.56889380  0.14689697  0.13602021
   0.00095246  0.88846960  0.14668604
   0.49165208  0.63514879  0.21049254
   0.97366609  0.25474722  0.60459928
   0.44075035  0.12467611  0.69318378
   0.93293874  0.76723070  0.64160765
   0.48731751  0.66569297  0.62292964
   0.18014547  0.22002976  0.29499485
   0.63977477  0.98353420  0.31775740
   0.06853876  0.69715338  0.32748687
   0.74936956  0.30964067  0.24522365
   0.05941529  0.17609105  0.83926693
   0.57635391  0.97432502  0.86637413
   0.15857942  0.68014967  0.78879341
   0.64526377  0.42531021  0.75550069
   0.16904995  0.18183829  0.02636205
   0.77439076  0.94745534  0.01880634
   0.34839704  0.71238409  0.96532254
   0.86781285  0.43603662  0.96346217
   0.38590621  0.21901883  0.48485509
   0.76899134  0.95623248  0.52958146
   0.13776445  0.67427404  0.53451033
   0.81294746  0.45717552  0.50113631
Direct configuration=     3
   0.60778044  0.27943198  0.11731016
   0.95298566  0.97723266  0.04678827
   0.46253944  0.71060430  0.09072186
   0.99016910  0.50023528  0.05847997
   0.48341025  0.26136954  0.61857845
   0.85649934  0.89503950  0.65249911
   0.61112113  0.77209242  0.63042828
   0.94053864  0.39852148  0.57648242
   0.13596912  0.59785871  0.41771994
   0.69908647  0.38087159  0.40630351
   0.32938580  0.21616281  0.31218991
   0.72820078  0.88877713  0.38351231
   0.25805742  0.62316434  0.90358282
   0.74164261  0.37362397  0.87660560
   0.19773524  0.09797514  0.90224365
   0.67462087  0.87672596  0.92312868
   0.07720581  0.22365724  0.14920504
   0.52534229 -0.00103725  0.18706073
   0.96886526  0.75263087  0.22335498
   0.45016503  0.51916747  0.32451306
   0.93417661  0.17513788  0.74127563
   0.44275052  0.97413534  0.77623836
   0.05409138  0.67552659  0.66544559
   0.49129342  0.51618147  0.73252803
   0.56557130  0.39487705  0.20221443
   0.97017816  0.13092154  0.08984645
   0.43450897  0.89330222  0.14418626
   0.92699896  0.59885761  0.13426229
   0.42564484  0.40180255  0.67181588
   0.90188615  0.02868645  0.71631062
   0.50842244  0.89497270  0.67020724
   0.04958278  0.52556700  0.63456763
   0.28377489  0.54836295  0.38250513
   0.53880104  0.48456153  0.45198497
   0.37638295  0.35771618  0.26004743
   0.83409026  0.81972481  0.29085598
   0.38226717  0.53194855  0.82926714
   0.82189302  0.26033555  0.80226034
   0.31511805  0.97441646  0.86948111
   0.74017064  0.79554759  0.78795290
   0.99717130  0.46834125  0.43088158
   0.61343143  0.28491563  0.50753295
   0.38670847  0.06773885  0.27694272
   0.64825069  0.79127410  0.46892182
   0.14270901  0.54369714  0.98832500
   0.63712667  0.32466981  0.98109898
   0.07158915  0.96833993  0.92786425
   0.57349285  0.77243699  0.01228072
   0.03273527  0.37082167  0.11072074
   0.57175336  0.14597432  0.13524349
  -0.00041171  0.88574645  0.14951589
   0.49318977  0.63476352  0.21627729
   0.97227806  0.25426153  0.60404937
   0.43875477  0.12390270  0.69466708
   0.93217564  0.76703963  0.64009584
   0.48727510  0.66671537  0.61689223
   0.17892636  0.22219685  0.29668891
   0.63737633  0.98407433  0.31796817
   0.06832730  0.69520579  0.32479323
   0.74849064  0.30930766  0.24810476
   0.05764068  0.18055610  0.84214079
   0.57347866  0.97358863  0.86619249
   0.15910021  0.67777490  0.78920644
   0.64233670  0.42498140  0.75125809
   0.17046546  0.18468583  0.02577020
   0.77806156  0.94837221  0.01760647
   0.35117464  0.71375796  0.96105801
   0.87258522  0.43786865  0.95947908
   0.38643466  0.21584833  0.48263694
   0.77237331  0.95952774  0.52819143
   0.13965940  0.67552120  0.53050623
   0.81299971  0.46090901  0.50150193
Direct configuration=     4
   0.60691080  0.27917688  0.11909098
   0.94912717  0.97898264  0.04888956
   0.46427634  0.70760060  0.09064654
   0.98733703  0.50023712  0.05747720
   0.48832704  0.26085557  0.62012594
   0.85631732  0.89443564  0.65242916
   0.61623711  0.77357388  0.63017164
   0.94182406  0.39816543  0.57571295
   0.13346820  0.59522973  0.41862414
   0.69971410  0.38114457  0.40691438
   0.32658723  0.21623647  0.31270479
   0.72965427  0.88889682  0.38451980
   0.25789537  0.62371169  0.90369837
   0.74250120  0.37332216  0.87834841
   0.19761555  0.09750581  0.90101701
   0.67406706  0.87816596  0.92207978
   0.07701792  0.22625921  0.15103004
   0.52490387 -0.00235442  0.18665772
   0.96969140  0.75239811  0.22423417
   0.44977965  0.51821348  0.32373779
   0.93285896  0.17621356  0.73987788
   0.44264196  0.97274279  0.77745271
   0.05346681  0.67803919  0.66632161
   0.49056975  0.51571935  0.73275422
   0.56198236  0.39827565  0.20131126
   0.97041371  0.13114280  0.08972654
   0.43340662  0.89243580  0.14532201
   0.92545711  0.60005579  0.13585659
   0.42598143  0.40317995  0.67184556
   0.89895313  0.02835514  0.71468983
   0.50806175  0.89681903  0.66759496
   0.05338888  0.52763400  0.63289515
   0.28901039  0.54939579  0.37825295
   0.54193825  0.48560378  0.45332957
   0.37326375  0.35521278  0.25948921
   0.83717036  0.81984744  0.29272016
   0.38222252  0.53043420  0.83091178
   0.81728199  0.25995720  0.80490178
   0.31375035  0.97645144  0.87391714
   0.74130328  0.79439045  0.79039718
   0.99760381  0.46699975  0.42948948
   0.61007764  0.28051585  0.50802236
   0.38349186  0.06808284  0.28155716
   0.64945251  0.78940396  0.47115606
   0.14366230  0.54228487  0.98709001
   0.63668314  0.32028247  0.97690713
   0.07213966  0.96595255  0.92549470
   0.57142688  0.77223878  0.01094090
   0.03589701  0.36870709  0.10777834
   0.57447657  0.14426157  0.13432329
  -0.00132792  0.88280119  0.15256399
   0.49475206  0.63434062  0.22221051
   0.97102350  0.25341110  0.60341455
   0.43675422  0.12315571  0.69638973
   0.93133678  0.76677626  0.63847208
   0.48707609  0.66726505  0.61110781
   0.17647306  0.22430010  0.29817491
   0.63464413  0.98504656  0.31778027
   0.06816292  0.69353223  0.32180608
   0.74806106  0.30884785  0.25121120
   0.05615468  0.18523358  0.84483462
   0.57066505  0.97331619  0.86622903
   0.15955779  0.67570767  0.78957722
   0.63963325  0.42487581  0.74706707
   0.17272126  0.18765593  0.02528081
   0.78194381  0.94941107  0.01657603
   0.35436932  0.71580636  0.95738478
   0.87719208  0.43984821  0.95524994
   0.38665304  0.21267315  0.48028061
   0.77598624  0.96311946  0.52682781
   0.14194256  0.67768454  0.52714249
   0.81215880  0.46476465  0.50207137
Direct configuration=     5
   0.60626260  0.27925325  0.12101577
   0.94535737  0.98083006  0.05077849
   0.46574227  0.70473073  0.09067938
   0.98471419  0.50010028  0.05620342
   0.49307077  0.26025796  0.62145625
   0.85593001  0.89400241  0.65237609
   0.62127410  0.77500867  0.62986393
   0.94330061  0.39811433  0.57483383
   0.13092608  0.59206958  0.41924210
   0.70023307  0.38140176  0.40747194
   0.32424659  0.21619070  0.31355509
   0.73120522  0.88902718  0.38562100
   0.25744807  0.62392439  0.90363151
   0.74340618  0.37320823  0.87998963
   0.19734996  0.09694930  0.89979188
   0.67357914  0.87937161  0.92112041
   0.07701540  0.22895133  0.15308182
   0.52448396 -0.00334564  0.18657074
   0.97038537  0.75197179  0.22501491
   0.44931021  0.51701683  0.32296158
   0.93165975  0.17731519  0.73845366
   0.44238508  0.97159955  0.77853951
   0.05315365  0.68042889  0.66723762
   0.49018369  0.51559422  0.73275232
   0.55827800  0.40227800  0.20040124
   0.96996771  0.13118220  0.08975611
   0.43185349  0.89081271  0.14616868
   0.92348458  0.60211259  0.13797300
   0.42572328  0.40381004  0.67132816
   0.89606621  0.02787972  0.71324229
   0.50774726  0.89843995  0.66457854
   0.05682125  0.52896174  0.63167926
   0.29432816  0.55046276  0.37394518
   0.54529965  0.48676053  0.45454433
   0.36997496  0.35299435  0.25881450
   0.84009282  0.81983651  0.29464024
   0.38175810  0.52902537  0.83321697
   0.81248654  0.25938818  0.80746544
   0.31223933  0.97845883  0.87844161
   0.74249217  0.79318601  0.79273981
   0.99880749  0.46566108  0.42758732
   0.60721485  0.27585523  0.50858705
   0.38030781  0.06833125  0.28605375
   0.65038376  0.78701911  0.47342854
   0.14462622  0.54086261  0.98596592
   0.63596787  0.31583607  0.97264636
   0.07255481  0.96337107  0.92313033
   0.57033116  0.77211589  0.00917139
   0.03915106  0.36642337  0.10520326
   0.57705980  0.14175887  0.13326575
  -0.00180103  0.87985607  0.15560911
   0.49635777  0.63403558  0.22812144
   0.96989243  0.25221916  0.60268063
   0.43474715  0.12247835  0.69833118
   0.93040784  0.76643509  0.63672611
   0.48678785  0.66741004  0.60563658
   0.17275250  0.22634718  0.29946878
   0.63169936  0.98632319  0.31729016
   0.06815157  0.69202457  0.31863492
   0.74802224  0.30827231  0.25450863
   0.05489371  0.19008057  0.84729872
   0.56800596  0.97348987  0.86654020
   0.15991678  0.67397512  0.78986368
   0.63730099  0.42494253  0.74303472
   0.17577525  0.19070092  0.02490928
   0.78584389  0.95051712  0.01564455
   0.35791132  0.71847072  0.95425865
   0.88155732  0.44194481  0.95074357
   0.38658945  0.20952963  0.47789063
   0.77979737  0.96696559  0.52545066
   0.14458098  0.68081760  0.52452307
   0.81051483  0.46871123  0.50287191
Direct configuration=     6
   0.60581385  0.27966641  0.12306652
   0.94181226  0.98271174  0.05249130
   0.46695054  0.70197334  0.09085779
   0.98232575  0.49987424  0.05475530
   0.49756233  0.25957639  0.62262232
   0.85533173  0.89374195  0.65232824
   0.62613727  0.77636662  0.62954155
   0.94494263  0.39838448  0.57383666
   0.12841156  0.58843085  0.41958013
   0.70061979  0.38164002  0.40800362
   0.32231930  0.21600892  0.31472898
   0.73279473  0.88919400  0.38679089
   0.25678944  0.62385399  0.90344123
   0.74433294  0.37333059  0.88150017
   0.19689136  0.09635596  0.89860807
   0.67317526  0.88035304  0.92028185
   0.07720593  0.23162895  0.15531367
   0.52403244 -0.00402405  0.18679554
   0.97091601  0.75133856  0.22568771
   0.44882183  0.51553593  0.32221505
   0.93056112  0.17842658  0.73706934
   0.44191305  0.97068446  0.77947437
   0.05319546  0.68267151  0.66815993
   0.49008880  0.51583872  0.73254236
   0.55453993  0.40678117  0.19940331
   0.96894079  0.13111619  0.08996026
   0.42988263  0.88847964  0.14674904
   0.92115411  0.60482655  0.14046943
   0.42483106  0.40364048  0.67022626
   0.89326676  0.02736023  0.71202564
   0.50749251  0.89983931  0.66121009
   0.05988246  0.52956300  0.63087395
   0.29943097  0.55162411  0.36968338
   0.54884631  0.48798610  0.45557262
   0.36655893  0.35107737  0.25801000
   0.84277387  0.81971644  0.29667305
   0.38094472  0.52769200  0.83612485
   0.80764032  0.25850879  0.80984466
   0.31072997  0.98038732  0.88298177
   0.74373825  0.79193230  0.79497430
   1.00069500  0.46428027  0.42522284
   0.60496559  0.27101463  0.50911563
   0.37721153  0.06841390  0.29034605
   0.65115677  0.78423078  0.47562439
   0.14555433  0.53943047  0.98499172
   0.63492211  0.31130946  0.96848790
   0.07276912  0.96064556  0.92082517
   0.57023037  0.77209230  0.00700763
   0.04239027  0.36420699  0.10292167
   0.57952426  0.13856408  0.13206049
  -0.00183152  0.87713159  0.15844819
   0.49803736  0.63399361  0.23385766
   0.96887391  0.25073253  0.60182063
   0.43273548  0.12191713  0.70045962
   0.92937568  0.76600773  0.63484883
   0.48646900  0.66721325  0.60053942
   0.16784698  0.22833885  0.30061137
   0.62866976  0.98778218  0.31660576
   0.06841669  0.69056235  0.31541317
   0.74831019  0.30758946  0.25795683
   0.05380068  0.19505139  0.84949064
   0.56559560  0.97408642  0.86717511
   0.16014445  0.67259952  0.79003167
   0.63545709  0.42513935  0.73923794
   0.17956505  0.19376928  0.02467492
   0.78955109  0.95163002  0.01473462
   0.36166414  0.72164035  0.95159899
   0.88561833  0.44412946  0.94593363
   0.38627281  0.20645369  0.47555936
   0.78376550  0.97101643  0.52401588
   0.14753944  0.68487283  0.52261557
   0.80820790  0.47271303  0.50391980
Direct configuration=     7
   0.60553574  0.28038306  0.12522460
   0.93862198  0.98457134  0.05406778
   0.46793351  0.69932700  0.09119943
   0.98019145  0.49961533  0.05323322
   0.50173661  0.25881335  0.62369517
   0.85452009  0.89364713  0.65227332
   0.63074751  0.77762512  0.62924466
   0.94672062  0.39897775  0.57271446
   0.12599387  0.58442813  0.41968976
   0.70085709  0.38186131  0.40853417
   0.32071810  0.21568806  0.31619889
   0.73436875  0.88941646  0.38801078
   0.25600327  0.62356736  0.90318630
   0.74525943  0.37372438  0.88286792
   0.19619555  0.09577657  0.89750035
   0.67287113  0.88112393  0.91958483
   0.07758852  0.23417941  0.15767875
   0.52348831 -0.00443877  0.18730788
   0.97124822  0.75049408  0.22624553
   0.44838858  0.51373809  0.32151509
   0.92954455  0.17952820  0.73578817
   0.44117581  0.96997043  0.78023284
   0.05361860  0.68475025  0.66905536
   0.49021173  0.51645265  0.73214154
   0.55085668  0.41167105  0.19824887
   0.96744469  0.13103740  0.09036473
   0.42755984  0.88552875  0.14710394
   0.91852966  0.60797647  0.14318348
   0.42330479  0.40269714  0.66855528
   0.89059453  0.02689436  0.71109801
   0.50730148  0.90103355  0.65755807
   0.06258695  0.52947892  0.63042542
   0.30403496  0.55292853  0.36557101
   0.55253442  0.48923093  0.45636930
   0.36305380  0.34946320  0.25706824
   0.84514150  0.81950976  0.29886884
   0.37988481  0.52638671  0.83954015
   0.80286414  0.25721788  0.81194081
   0.30936174  0.98218160  0.88747173
   0.74504200  0.79062842  0.79710020
   1.00314204  0.46280228  0.42245969
   0.60342962  0.26605858  0.50949763
   0.37424031  0.06826830  0.29436905
   0.65187727  0.78114872  0.47761746
   0.14640171  0.53798897  0.98420276
   0.63350065  0.30670087  0.96457466
   0.07273760  0.95782940  0.91861369
   0.57110427  0.77216056  0.00452257
   0.04550102  0.36229397  0.10084961
   0.58190245  0.13484275  0.13068988
  -0.00141853  0.87483342  0.16090552
   0.49982840  0.63434187  0.23929485
   0.96795811  0.24901734  0.60079841
   0.43072314  0.12151796  0.70273573
   0.92823498  0.76548331  0.63283563
   0.48616055  0.66672748  0.59587425
   0.16192591  0.23026580  0.30166528
   0.62567848  0.98931472  0.31583886
   0.06908854  0.68902336  0.31228364
   0.74885657  0.30680914  0.26150463
   0.05283046  0.20009878  0.85137855
   0.56351659  0.97508056  0.86816822
   0.16021544  0.67159630  0.79005897
   0.63418145  0.42543094  0.73572663
   0.18401475  0.19680655  0.02459343
   0.79284667  0.95268698  0.01376614
   0.36546629  0.72518441  0.94931541
   0.88932746  0.44637635  0.94080034
   0.38572489  0.20347438  0.47336603
   0.78784742  0.97522061  0.52247559
   0.15076547  0.68971256  0.52130223
   0.80541057  0.47672927  0.50522054
Direct configuration=     8
   0.60539734  0.28135449  0.12746992
   0.93590736  0.98636285  0.05555148
   0.46873331  0.69680412  0.09170390
   0.97832605  0.49937453  0.05172647
   0.50554569  0.25797327  0.62474872
   0.85350053  0.89370629  0.65219899
   0.63504016  0.77877025  0.62901576
   0.94860238  0.39988093  0.57146452
   0.12374544  0.58020995  0.41963333
   0.70093433  0.38206851  0.40908824
   0.31933933  0.21524874  0.31793033
   0.73588017  0.88970930  0.38926769
   0.25516726  0.62313340  0.90291719
   0.74616260  0.37440440  0.88409325
   0.19522475  0.09525898  0.89649666
   0.67268028  0.88170143  0.91904016
   0.07815321  0.23649700  0.16013209
   0.52279165 -0.00466133  0.18806855
   0.97134842  0.74944719  0.22668585
   0.44809063  0.51159962  0.32086407
   0.92859247  0.18060055  0.73466583
   0.44014586  0.96942814  0.78079663
   0.05443202  0.68665722  0.66988854
   0.49046575  0.51740660  0.73155921
   0.54732548  0.41683036  0.19687295
   0.96559225  0.13104562  0.09099321
   0.42496835  0.88207971  0.14728443
   0.91565564  0.61134647  0.14595278
   0.42118266  0.40106699  0.66637433
   0.88808395  0.02656983  0.71051447
   0.50717213  0.90204678  0.65370081
   0.06495660  0.52877163  0.63027491
   0.30787798  0.55441719  0.36170510
   0.55631160  0.49044699  0.45689986
   0.35948904  0.34813207  0.25599401
   0.84714495  0.81923542  0.30126418
   0.37869518  0.52505388  0.84334773
   0.79825700  0.25544439  0.81367315
   0.30825759  0.98378916  0.89185785
   0.74640277  0.78927407  0.79911344
   1.00599818  0.46116172  0.41936911
   0.60268890  0.26104380  0.50963563
   0.37141534  0.06783840  0.29808676
   0.65263829  0.77787115  0.47928434
   0.14712755  0.53654134  0.98362834
   0.63167972  0.30202837  0.96101677
   0.07243425  0.95497531  0.91651487
   0.57289758  0.77228753  0.00181533
   0.04837580  0.36089547  0.09889767
   0.58422531  0.13078580  0.12913642
  -0.00056504  0.87313359  0.16284446
   0.50176847  0.63517990  0.24434511
   0.96713697  0.24715152  0.59957401
   0.42871543  0.12132067  0.70511826
   0.92698925  0.76484816  0.63068695
   0.48588596  0.66599364  0.59169419
   0.15520041  0.23210634  0.30270764
   0.62283756  0.99082799  0.31509980
   0.07028771  0.68729695  0.30937836
   0.74959547  0.30593969  0.26509384
   0.05195163  0.20517567  0.85294285
   0.56182753  0.97644674  0.86953198
   0.16011521  0.67097261  0.78993837
   0.63351394  0.42578986  0.73252948
   0.18904294  0.19975836  0.02467388
   0.79551410  0.95362401  0.01265777
   0.36916046  0.72897420  0.94732365
   0.89265619  0.44866640  0.93533519
   0.38495230  0.20060762  0.47136395
   0.79200273  0.97952528  0.52078613
   0.15419025  0.69515444  0.52044992
   0.80231042  0.48071694  0.50676919
Direct configuration=     9
   0.60536753  0.28252699  0.12978031
   0.93377129  0.98804904  0.05698528
   0.46939438  0.69442615  0.09235895
   0.97673712  0.49919265  0.05030575
   0.50895861  0.25706324  0.62585085
   0.85228729  0.89390649  0.65209352
   0.63896627  0.77979605  0.62889446
   0.95055530  0.40106804  0.57008793
   0.12174206  0.57593721  0.41946558
   0.70084854  0.38226536  0.40968952
   0.31808217  0.21472604  0.31988083
   0.73728864  0.89008468  0.39055285
   0.25434539  0.62261737  0.90267410
   0.74701748  0.37536003  0.88518164
   0.19395145  0.09484461  0.89561865
   0.67261255  0.88210642  0.91864868
   0.07888005  0.23849771  0.16262395
   0.52188589 -0.00477021  0.18903164
   0.97119585  0.74822386  0.22701521
   0.44800261  0.50911114  0.32025414
   0.92768923  0.18162711  0.73374745
   0.43882159  0.96902838  0.78115881
   0.05562785  0.68839413  0.67062022
   0.49076458  0.51865313  0.73079945
   0.54404180  0.42214309  0.19521699
   0.96348896  0.13123977  0.09186582
   0.42219583  0.87825843  0.14734336
   0.91255639  0.61473537  0.14862531
   0.41853214  0.39887070  0.66376880
   0.88576235  0.02645710  0.71032227
   0.50709854  0.90290652  0.64971933
   0.06701832  0.52751707  0.63036334
   0.31074112  0.55612461  0.35816688
   0.56011729  0.49159109  0.45713897
   0.35588502  0.34704606  0.25480001
   0.84876340  0.81890658  0.30387736
   0.37749366  0.52363797  0.84742613
   0.79389139  0.25315728  0.81498674
   0.30751400  0.98516771  0.89609992
   0.74781920  0.78786986  0.80100396
   1.00909899  0.45928407  0.41602340
   0.60278813  0.25601431  0.50945519
   0.36874155  0.06707774  0.30148048
   0.65351544  0.77448042  0.48051783
   0.14769755  0.53509546  0.98328951
   0.62946073  0.29733169  0.95789201
   0.07184942  0.95213409  0.91453652
   0.57552901  0.77242082 -0.00100166
   0.05092541  0.36016727  0.09698330
   0.58651906  0.12658214  0.12738655
   0.00071675  0.87214832  0.16418018
   0.50388829  0.63656994  0.24895984
   0.96640456  0.24521775  0.59810958
   0.42671854  0.12135694  0.70756712
   0.92565081  0.76408743  0.62840960
   0.48565359  0.66504207  0.58804441
   0.14789132  0.23383376  0.30382988
   0.62024615  0.99224521  0.31449464
   0.07210452  0.68529903  0.30679669
   0.75046759  0.30498887  0.26866406
   0.05114536  0.21023606  0.85417554
   0.56055422  0.97815922  0.87125147
   0.15984282  0.67072627  0.78967991
   0.63345656  0.42619569  0.72965881
   0.19456250  0.20257572  0.02491785
   0.79736409  0.95438157  0.01133301
   0.37261052  0.73289219  0.94555047
   0.89559815  0.45099035  0.92954484
   0.38397035  0.19785950  0.46959348
   0.79619494  0.98387950  0.51891363
   0.15773574  0.70100813  0.51994681
   0.79909206  0.48463183  0.50855244
Direct configuration=    10
   0.60541720  0.28384475  0.13213076
   0.93227923  0.98959772  0.05840421
   0.46995841  0.69221985  0.09314396
   0.97542265  0.49910100  0.04901936
   0.51196311  0.25609423  0.62705202
   0.85090231  0.89423624  0.65194590
   0.64249000  0.78070294  0.62891158
   0.95254702  0.40250255  0.56859029
   0.12005986  0.57176839  0.41923020
   0.70060663  0.38245603  0.41036082
   0.31685637  0.21416057  0.32200005
   0.73856115  0.89055322  0.39186111
   0.25358704  0.62207969  0.90248655
   0.74779701  0.37655432  0.88613734
   0.19236256  0.09456316  0.89488138
   0.67267447  0.88236322  0.91840137
   0.07973863  0.24013509  0.16509221
   0.52072066 -0.00483936  0.19015069
   0.97079357  0.74686840  0.22725091
   0.44817529  0.50628598  0.31967850
   0.92682240  0.18259562  0.73306513
   0.43722582  0.96874293  0.78132527
   0.05718172  0.68997197  0.67120706
   0.49103243  0.52013684  0.72986474
   0.54108852  0.42749739  0.19322968
   0.96122700  0.13171035  0.09299744
   0.41932500  0.87418442  0.14732991
   0.90923879  0.61796360  0.15106516
   0.41543980  0.39623943  0.66083358
   0.88364906  0.02660389  0.71055641
   0.50707240  0.90364085  0.64569202
   0.06880337  0.52579903  0.63063549
   0.31248179  0.55807297  0.35501053
   0.56388325  0.49262733  0.45706865
   0.35226011  0.34615850  0.25350222
   0.85000878  0.81852933  0.30670433
   0.37639100  0.52208990  0.85165851
   0.78981005  0.25036996  0.81585717
   0.30719275  0.98629216  0.90017134
   0.74928946  0.78641718  0.80275726
   1.01227796  0.45708922  0.41249085
   0.60372513  0.25100097  0.50891606
   0.36621277  0.06595367  0.30453955
   0.65456337  0.77104045  0.48123885
   0.14808659  0.53366555  0.98319726
   0.62686866  0.29266814  0.95524885
   0.07098737  0.94935365  0.91267847
   0.57889619  0.77249230 -0.00381125
   0.05308719  0.36018257  0.09504784
   0.58880496  0.12240243  0.12543242
   0.00240104  0.87192266  0.16488511
   0.50620587  0.63853107  0.25312741
   0.96575654  0.24329547  0.59637545
   0.42473938  0.12164887  0.71004554
   0.92423976  0.76318756  0.62601677
   0.48546094  0.66389486  0.58496029
   0.14021324  0.23542198  0.30513644
   0.61798719  0.99350563  0.31411967
   0.07457898  0.68298510  0.30458907
   0.75142162  0.30396509  0.27215574
   0.05040367  0.21523688  0.85507896
   0.55968871  0.98019095  0.87328475
   0.15941246  0.67084497  0.78931220
   0.63397867  0.42663411  0.72711625
   0.20048482  0.20521775  0.02532033
   0.79827527  0.95491642  0.00973425
   0.37570824  0.73683164  0.94393526
   0.89816665  0.45334898  0.92345476
   0.38281036  0.19523068  0.46809692
   0.80039463  0.98823423  0.51683729
   0.16132142  0.70709302  0.51970805
   0.79592321  0.48843006  0.51055096
