SiO2                                    
           1
     8.719593    0.000000    0.000000
     0.000000    9.322992    0.000000
     0.000000    0.000000    9.465057
   Si   O 
  24  48
Direct configuration=     1
   0.61019670  0.28069619  0.11431707
   0.96041276  0.97429524  0.04183499
   0.45831425  0.71719333  0.09096773
   0.99628494  0.49975048  0.05941660
   0.47340830  0.26214286  0.61474859
   0.85631338  0.89671809  0.65274109
   0.60104231  0.76913810  0.63067073
   0.93861533  0.40000762  0.57771576
   0.14048783  0.60164952  0.41534897
   0.69762063  0.38031619  0.40477955
   0.33625230  0.21577809  0.31211914
   0.72582206  0.88844286  0.38189681
   0.25739623  0.62104095  0.90265197
   0.74020230  0.37456381  0.87302251
   0.19773791  0.09848476  0.90453096
   0.67584560  0.87314190  0.92533021
   0.07806751  0.21904381  0.14639024
   0.52638769  0.00241294  0.18871764
   0.96690840  0.75259619  0.22133677
   0.45047243  0.52052571  0.32587523
   0.93723657  0.17310191  0.74374109
   0.44283325  0.97771429  0.77350657
   0.05602610  0.67023524  0.66397561
   0.49375875  0.51785810  0.73136210
   0.57218816  0.39021048  0.20431332
   0.96738191  0.12975809  0.09045704
   0.43543132  0.89285333  0.14107599
   0.92860456  0.59950571  0.13293340
   0.42347665  0.39736476  0.67048781
   0.90772766  0.02854343  0.71986210
   0.50917764  0.89067524  0.67412570
   0.04091646  0.51934952  0.63942402
   0.27479365  0.54607143  0.39047186
   0.53334156  0.48295714  0.44918293
   0.38186337  0.36339524  0.26091651
   0.82779526  0.81898191  0.28707692
   0.38106198  0.53529143  0.82793433
   0.83001512  0.26103333  0.79715666
   0.31688246  0.97040000  0.86116510
   0.73805269  0.79771810  0.78274296
   0.99873697  0.47116476  0.43206473
   0.62101904  0.29255048  0.50719606
   0.39289854  0.06706886  0.26778236
   0.64462495  0.79306857  0.46495403
   0.14101428  0.54648476  0.99096623
   0.63744196  0.33343619  0.98848968
   0.07044014  0.97236190  0.93229456
   0.58020309  0.77280857  0.01372814
   0.02703101  0.37372381  0.11793996
   0.56593282  0.14712857  0.13662477
   0.00277182  0.89076190  0.14429831
   0.49013365  0.63534000  0.20503002
   0.97519420  0.25486857  0.60506567
   0.44274771  0.12543905  0.69194840
   0.93363998  0.76735429  0.64301876
   0.48713582  0.66413524  0.62916135
   0.18026921  0.21779238  0.29310038
   0.64174218  0.98354286  0.31707411
   0.06871608  0.69946286  0.32981144
   0.75073850  0.30984000  0.24258724
   0.06154195  0.17187714  0.83626548
   0.57921026  0.97553333  0.86671670
   0.15802985  0.68280190  0.78838555
   0.64824496  0.42592381  0.75966135
   0.16849172  0.17915524  0.02705131
   0.77109506  0.94670762  0.02023546
   0.34601257  0.71166762  0.97015948
   0.86296075  0.43438381  0.96723265
   0.38503431  0.22214762  0.48681520
   0.76586412  0.95326667  0.53102439
   0.13630879  0.67382286  0.53892683
   0.81197517  0.45359333  0.50094090
Direct configuration=     2
   0.60875134  0.27789790  0.11461676
   0.96033131  0.97514820  0.04054823
   0.46027932  0.71448693  0.09140039
   0.99509536  0.49988885  0.05981961
   0.47095103  0.26230912  0.61258565
   0.85742262  0.89659084  0.65334253
   0.60266752  0.76901277  0.63160559
   0.93908293  0.40168493  0.57629385
   0.14257254  0.60091016  0.41573495
   0.69692912  0.38132077  0.40375071
   0.33686713  0.21512221  0.31153726
   0.72539623  0.88853777  0.38109754
   0.25500573  0.62108572  0.90253958
   0.74241050  0.37537118  0.87253675
   0.19791772  0.09788559  0.90454712
   0.67516873  0.87231329  0.92449516
   0.08067173  0.21841831  0.14566505
   0.52477083  0.00448233  0.18900621
   0.96365136  0.75264213  0.21976718
   0.45140691  0.52200068  0.32511869
   0.93586174  0.17182175  0.73995392
   0.44418712  0.97772753  0.77448941
   0.05591831  0.66685367  0.66236660
   0.49500916  0.51745010  0.73068338
   0.57244102  0.38992544  0.20562207
   0.96488820  0.12895440  0.08887374
   0.43506838  0.89151259  0.14389538
   0.92883943  0.59732769  0.13182614
   0.42262135  0.39615827  0.67391221
   0.90835170  0.02778473  0.71983114
   0.51176962  0.89389628  0.67694091
   0.04194832  0.51858545  0.64184800
   0.27713539  0.54838142  0.38864453
   0.53377509  0.48608841  0.44923041
   0.38230127  0.36282567  0.26064299
   0.82710606  0.81842279  0.28882384
   0.37815908  0.53468259  0.82716668
   0.83270517  0.26187655  0.79745768
   0.31796537  0.97122393  0.86266005
   0.73801610  0.79881664  0.78370738
   1.00138288  0.47021042  0.43025857
   0.62273295  0.29098294  0.50445812
   0.39149159  0.06863119  0.27102772
   0.64525585  0.78943936  0.46840802
   0.14198211  0.54266622  0.99352675
   0.63564292  0.33751188  0.98705885
   0.07185908  0.97324298  0.93389095
   0.57988850  0.77350620  0.01229831
   0.02872436  0.37123742  0.12020462
   0.56991979  0.15115662  0.13694280
   0.00339333  0.89020246  0.14682769
   0.49028605  0.63734967  0.20730652
   0.97831302  0.25349369  0.60085023
   0.44161771  0.12364209  0.69180545
   0.93033664  0.76671141  0.64371477
   0.48754412  0.66548557  0.62997952
   0.17656871  0.21996449  0.29413301
   0.64496272  0.98344879  0.31666982
   0.06953019  0.70132279  0.33162412
   0.74841699  0.30788242  0.24580260
   0.05902371  0.17197254  0.83542964
   0.57709660  0.97765965  0.86622605
   0.15799701  0.67918278  0.78856079
   0.64431091  0.42725661  0.76069987
   0.16763365  0.18133450  0.02521334
   0.76746891  0.94485332  0.02085630
   0.34510668  0.71254141  0.97161993
   0.86527210  0.43537784  0.96269047
   0.38234366  0.22616609  0.48607551
   0.76851150  0.95292449  0.53244715
   0.13749322  0.67652380  0.54137131
   0.80951439  0.45330995  0.50050556
Direct configuration=     3
   0.60760979  0.27554025  0.11505110
   0.95993313  0.97619375  0.03910287
   0.46205541  0.71208891  0.09171365
   0.99401388  0.49973456  0.05983098
   0.46860141  0.26236882  0.61023323
   0.85837887  0.89659024  0.65399908
   0.60447316  0.76898255  0.63243430
   0.93977285  0.40348494  0.57475234
   0.14423071  0.59989452  0.41616729
   0.69620398  0.38234088  0.40254937
   0.33765607  0.21449109  0.31123680
   0.72520891  0.88846731  0.38059649
   0.25238731  0.62089114  0.90225296
   0.74473802  0.37618495  0.87210451
   0.19808623  0.09711558  0.90441330
   0.67446528  0.87131702  0.92358266
   0.08331345  0.21801773  0.14525299
   0.52323590  0.00666720  0.18948451
   0.96037627  0.75252388  0.21817444
   0.45212650  0.52335010  0.32422721
   0.93467149  0.17062518  0.73596651
   0.44554806  0.97803404  0.77541076
   0.05584009  0.66350547  0.66100458
   0.49645528  0.51718720  0.72984427
   0.57248724  0.39039416  0.20711810
   0.96169439  0.12801305  0.08744177
   0.43441944  0.88964174  0.14652364
   0.92849564  0.59630033  0.13142099
   0.42140241  0.39467107  0.67709015
   0.90890228  0.02660576  0.71984861
   0.51439094  0.89683214  0.67920821
   0.04268343  0.51719306  0.64475269
   0.28052084  0.55043706  0.38651457
   0.53453990  0.48937727  0.44938451
   0.38238210  0.36238299  0.26031323
   0.82650207  0.81763172  0.29045736
   0.37499668  0.53413774  0.82688440
   0.83481924  0.26291053  0.79793431
   0.31854484  0.97207917  0.86443380
   0.73801368  0.79985239  0.78455583
   1.00470963  0.46934335  0.42803044
   0.62441023  0.28885841  0.50210668
   0.38990741  0.07024313  0.27441654
   0.64546971  0.78519268  0.47201844
   0.14312365  0.53885913  0.99605687
   0.63370754  0.34163043  0.98516104
   0.07346994  0.97379400  0.93518123
   0.58014163  0.77401527  0.01058816
   0.03060917  0.36829531  0.12287721
   0.57365255  0.15403981  0.13717747
   0.00440136  0.88920917  0.14980599
   0.49049311  0.63900787  0.21009351
   0.98153092  0.25183607  0.59655927
   0.44049496  0.12189227  0.69184554
   0.92709959  0.76586941  0.64432993
   0.48765416  0.66625734  0.63094556
   0.17215659  0.22204602  0.29502262
   0.64756964  0.98410072  0.31566953
   0.07020624  0.70359899  0.33299730
   0.74662989  0.30578313  0.24924161
   0.05695556  0.17231990  0.83453378
   0.57505478  0.98020462  0.86597033
   0.15789764  0.67583961  0.78874864
   0.64038353  0.42889030  0.76155199
   0.16763048  0.18370058  0.02345005
   0.76442015  0.94323822  0.02179066
   0.34442723  0.71390631  0.97351990
   0.86765398  0.43659808  0.95802830
   0.37926544  0.23009169  0.48493688
   0.77135798  0.95290789  0.53384807
   0.13925062  0.67980939  0.54373649
   0.80632979  0.45323323  0.50022313
Direct configuration=     4
   0.60688296  0.27408730  0.11548544
   0.95922896  0.97734576  0.03759017
   0.46364483  0.71000713  0.09187680
   0.99309313  0.49917212  0.05945660
   0.46637510  0.26231440  0.60772869
   0.85918483  0.89670802  0.65471019
   0.60642016  0.76905709  0.63318951
   0.94067036  0.40535726  0.57307661
   0.14546715  0.59865192  0.41665725
   0.69542468  0.38336706  0.40117665
   0.33850803  0.21394866  0.31121919
   0.72522912  0.88818431  0.38047728
   0.24961987  0.62048408  0.90186197
   0.74712023  0.37700560  0.87169215
   0.19822295  0.09619817  0.90411633
   0.67371260  0.87020391  0.92257420
   0.08592601  0.21778440  0.14514105
   0.52177341  0.00893210  0.19013670
   0.95713220  0.75221204  0.21660139
   0.45264784  0.52454747  0.32322072
   0.93367505  0.16955497  0.73179182
   0.44682977  0.97864984  0.77628776
   0.05573986  0.66027052  0.65993163
   0.49800319  0.51709302  0.72888359
   0.57237026  0.39157788  0.20874637
   0.95792407  0.12704363  0.08619833
   0.43354487  0.88732331  0.14899458
   0.92752016  0.59647813  0.13176604
   0.41982794  0.39287559  0.68000081
   0.90939037  0.02501369  0.71994475
   0.51711874  0.89934667  0.68081589
   0.04311854  0.51510788  0.64806745
   0.28483903  0.55228491  0.38411009
   0.53563222  0.49278627  0.44964796
   0.38209285  0.36205716  0.25992430
   0.82598320  0.81658360  0.29196229
   0.37166397  0.53366031  0.82702347
   0.83638553  0.26410730  0.79853455
   0.31865084  0.97295845  0.86646387
   0.73804810  0.80081725  0.78527417
   1.00861917  0.46856220  0.42547296
   0.62598966  0.28618785  0.50014968
   0.38823995  0.07180768  0.27787461
   0.64538696  0.78047917  0.47566318
   0.14445897  0.53508881  0.99853938
   0.63161855  0.34573174  0.98297341
   0.07527635  0.97399336  0.93616076
   0.58087789  0.77429489  0.00864829
   0.03257959  0.36511408  0.12586527
   0.57691083  0.15504653  0.13748086
   0.00573697  0.88795070  0.15304392
   0.49077829  0.64034231  0.21337460
   0.98480054  0.24996340  0.59220971
   0.43936962  0.12027397  0.69200455
   0.92402381  0.76471171  0.64486767
   0.48746994  0.66647495  0.63207080
   0.16722632  0.22401410  0.29580622
   0.64951320  0.98553881  0.31405238
   0.07072403  0.70625201  0.33393468
   0.74538765  0.30353933  0.25286587
   0.05535894  0.17288732  0.83358648
   0.57323921  0.98312142  0.86607383
   0.15766101  0.67280475  0.78890486
   0.63661567  0.43076118  0.76227482
   0.16846608  0.18623610  0.02173783
   0.76198986  0.94188014  0.02305529
   0.34388718  0.71566191  0.97578905
   0.87016257  0.43806508  0.95330959
   0.37580467  0.23391720  0.48340675
   0.77432723  0.95318597  0.53513700
   0.14161538  0.68360521  0.54587526
   0.80261440  0.45338565  0.50011733
Direct configuration=     5
   0.60663142  0.27389057  0.11583055
   0.95823576  0.97852665  0.03608402
   0.46505928  0.70823667  0.09188781
   0.99234110  0.49816939  0.05874920
   0.46428566  0.26214196  0.60510666
   0.85984784  0.89691785  0.65547193
   0.60846040  0.76923028  0.63390676
   0.94174967  0.40724921  0.57124640
   0.14632929  0.59722774  0.41719301
   0.69456345  0.38438507  0.39963855
   0.33931735  0.21356502  0.31148154
   0.72539632  0.88769263  0.38077758
   0.24678658  0.61989523  0.90144184
   0.74948535  0.37783505  0.87127079
   0.19830460  0.09515893  0.90365317
   0.67290500  0.86903334  0.92146671
   0.08845333  0.21765096  0.14530608
   0.52036059  0.01121892  0.19094739
   0.95396335  0.75168842  0.21508372
   0.45300036  0.52556057  0.32212347
   0.93287228  0.16864989  0.72745353
   0.44795217  0.97957431  0.77712738
   0.05558546  0.65721527  0.65916041
   0.49954620  0.51718090  0.72782940
   0.57213854  0.39343602  0.21044723
   0.95370879  0.12615444  0.08517144
   0.43251185  0.88465872  0.15134276
   0.92594276  0.59777390  0.13280624
   0.41791693  0.39076740  0.68263785
   0.90983942  0.02305505  0.72016350
   0.52000471  0.90134633  0.68169415
   0.04326451  0.51230102  0.65172511
   0.28987935  0.55399661  0.38148725
   0.53704225  0.49627391  0.45001339
   0.38141650  0.36182539  0.25947390
   0.82553501  0.81526405  0.29333414
   0.36825830  0.53324429  0.82751660
   0.83745795  0.26540715  0.79919006
   0.31833890  0.97385138  0.86871317
   0.73812275  0.80170286  0.78584470
   1.01300387  0.46785992  0.42268345
   0.62742336  0.28299836  0.49858293
   0.38657146  0.07321508  0.28133318
   0.64512448  0.77544362  0.47921687
   0.14599536  0.53137956  1.00096158
   0.62937096  0.34975997  0.98063733
   0.07726308  0.97382567  0.93684092
   0.58200306  0.77429478  0.00653869
   0.03452557  0.36191000  0.12907960
   0.57957541  0.15368304  0.13794930
   0.00735461  0.88658165  0.15637092
   0.49116040  0.64142078  0.21707664
   0.98807414  0.24794421  0.58782003
   0.43822750  0.11886502  0.69221955
   0.92117783  0.76315271  0.64532743
   0.48701638  0.66618549  0.63336675
   0.16196679  0.22584019  0.29652708
   0.65083183  0.98770712  0.31187279
   0.07108752  0.70921695  0.33446727
   0.74469379  0.30114166  0.25663046
   0.05424051  0.17364387  0.83258688
   0.57179016  0.98636557  0.86664551
   0.15721737  0.67011101  0.78898593
   0.63316793  0.43280235  0.76292477
   0.17010622  0.18891910  0.02006075
   0.76018965  0.94077858  0.02463936
   0.34338950  0.71770396  0.97834304
   0.87285014  0.43980254  0.94859856
   0.37197719  0.23763762  0.48151222
   0.77733996  0.95372669  0.53622541
   0.14458681  0.68783176  0.54770231
   0.79857915  0.45378543  0.50022075
Direct configuration=     6
   0.60682623  0.27496841  0.11607850
   0.95697813  0.97966852  0.03464150
   0.46631572  0.70676427  0.09176985
   0.99173183  0.49676271  0.05779917
   0.46234485  0.26185097  0.60239695
   0.86037902  0.89717168  0.65627539
   0.61053948  0.76948381  0.63462258
   0.94297621  0.40910929  0.56923866
   0.14689066  0.59567303  0.41774707
   0.69358910  0.38537668  0.39794645
   0.33999109  0.21340937  0.31201375
   0.72563161  0.88703723  0.38149196
   0.24396755  0.61915482  0.90106919
   0.75175887  0.37867634  0.87081884
   0.19830601  0.09402867  0.90303016
   0.67205167  0.86787229  0.92027211
   0.09085329  0.21754475  0.14571461
   0.51896415  0.01345000  0.19190560
   0.95091058  0.75095012  0.21365021
   0.45322607  0.52635115  0.32096204
   0.93225985  0.16793879  0.72298385
   0.44885500  0.98078640  0.77792243
   0.05536892  0.65438825  0.65867030
   0.50097105  0.51745359  0.72669936
   0.57184431  0.39593213  0.21216519
   0.94917825  0.12544529  0.08437975
   0.43138836  0.88175668  0.15359852
   0.92385750  0.59998409  0.13440119
   0.41570110  0.38836503  0.68500716
   0.91028479  0.02081618  0.72056040
   0.52306470  0.90279402  0.68183137
   0.04314427  0.50878858  0.65566619
   0.29536688  0.55565044  0.37872557
   0.53875311  0.49979607  0.45046525
   0.38033587  0.36165518  0.25895904
   0.82512952  0.81367188  0.29457831
   0.36487929  0.53287617  0.82829636
   0.83810392  0.26672955  0.79982396
   0.31768698  0.97474218  0.87113290
   0.73824247  0.80250063  0.78624742
   1.01775221  0.46722319  0.41975755
   0.62867574  0.27933291  0.49739287
   0.38496903  0.07435141  0.28473294
   0.64479120  0.77021974  0.48255675
   0.14772747  0.52775407  1.00331408
   0.62697410  0.35366825  0.97826038
   0.07939270  0.97328239  0.93724905
   0.58341879  0.77395919  0.00432386
   0.03633647  0.35889413  0.13243272
   0.58170160  0.15007396  0.13854800
   0.00921667  0.88523665  0.15963923
   0.49165695  0.64234054  0.22107790
   0.99130451  0.24584382  0.58341040
   0.43705175  0.11773093  0.69243179
   0.91860227  0.76114482  0.64570627
   0.48633419  0.66545449  0.63484306
   0.15655397  0.22749133  0.29723421
   0.65163030  0.99046948  0.30924730
   0.07131728  0.71241004  0.33464552
   0.74454255  0.29857504  0.26048222
   0.05359255  0.17455906  0.83152601
   0.57081945  0.98989400  0.86776510
   0.15650230  0.66778949  0.78895280
   0.63019932  0.43494531  0.76355448
   0.17250185  0.19172506  0.01841322
   0.75900741  0.93991438  0.02650525
   0.34283946  0.71993356  0.98109263
   0.87575735  0.44183360  0.94395463
   0.36781130  0.24125172  0.47930328
   0.78032048  0.95449845  0.53703318
   0.14811898  0.69239603  0.54919616
   0.79443284  0.45444384  0.50057082
Direct configuration=     7
   0.60738046  0.27703667  0.11628792
   0.95548932  0.98071437  0.03330539
   0.46743231  0.70557349  0.09156410
   0.99123082  0.49502137  0.05670989
   0.46056140  0.26144493  0.59962450
   0.86079012  0.89740323  0.65710474
   0.61260210  0.76979110  0.63537096
   0.94430938  0.41088755  0.56703215
   0.14723536  0.59405115  0.41828370
   0.69247242  0.38632347  0.39611914
   0.34045373  0.21354121  0.31279596
   0.72585820  0.88628144  0.38258446
   0.24123486  0.61829149  0.90081497
   0.75386884  0.37953372  0.87032487
   0.19820239  0.09284507  0.90226186
   0.67117331  0.86679200  0.91901408
   0.09309867  0.21739312  0.14632353
   0.51754016  0.01553238  0.19300707
   0.94801216  0.75001386  0.21232434
   0.45337878  0.52687593  0.31976293
   0.93183335  0.16743911  0.71842307
   0.44950710  0.98224642  0.77865557
   0.05510385  0.65181943  0.65841394
   0.50216400  0.51790258  0.72550378
   0.57154444  0.39903033  0.21385655
   0.94445272  0.12500037  0.08383167
   0.43023913  0.87872504  0.15578568
   0.92137996  0.60284835  0.13637049
   0.41322612  0.38570690  0.68712200
   0.91077161  0.01841795  0.72119804
   0.52627731  0.90371064  0.68127605
   0.04278867  0.50463426  0.65983931
   0.30099639  0.55731855  0.37592056
   0.54074030  0.50330535  0.45098264
   0.37884176  0.36151095  0.25837277
   0.82472735  0.81182023  0.29570957
   0.36162569  0.53253728  0.82929701
   0.83839537  0.26798413  0.80035849
   0.31679286  0.97560769  0.87366514
   0.73841443  0.80320179  0.78646195
   1.02275362  0.46663127  0.41678462
   0.62972217  0.27525009  0.49655896
   0.38348210  0.07511185  0.28802699
   0.64448369  0.76492267  0.48556995
   0.14963811  0.52423520  1.00559075
   0.62445196  0.35741732  0.97592351
   0.08160542  0.97236262  0.93742544
   0.58502785  0.77323120  0.00206810
   0.03790492  0.35626527  0.13583936
   0.58346391  0.14490146  0.13912352
   0.01128688  0.88402604  0.16272499
   0.49228808  0.64321561  0.22522548
   0.99444573  0.24372123  0.57900273
   0.43582581  0.11692035  0.69258884
   0.91631376  0.75867991  0.64600054
   0.48547393  0.66436233  0.63650409
   0.15114254  0.22893230  0.29798119
   0.65204434  0.99364714  0.30632834
   0.07144467  0.71573412  0.33453319
   0.74491347  0.29582410  0.26435777
   0.05339360  0.17560249  0.83038874
   0.57039730  0.99366082  0.86947007
   0.15546279  0.66586787  0.78877642
   0.62785537  0.43712265  0.76420933
   0.17559113  0.19462741  0.01680102
   0.75841369  0.93925286  0.02859310
   0.34215134  0.72225937  0.98394755
   0.87890626  0.44417574  0.93942715
   0.36334651  0.24476056  0.47685412
   0.78320153  0.95547018  0.53749518
   0.15212513  0.69718987  0.55038276
   0.79036594  0.45536232  0.50120380
Direct configuration=     8
   0.60820740  0.27974586  0.11653553
   0.95380988  0.98162057  0.03210665
   0.46842478  0.70464914  0.09132084
   0.99081173  0.49301976  0.05557825
   0.45893980  0.26093078  0.59681002
   0.86109061  0.89753485  0.65793628
   0.61459498  0.77012217  0.63618016
   0.94570779  0.41253953  0.56460865
   0.14744905  0.59243763  0.41876533
   0.69119097  0.38720837  0.39417872
   0.34065109  0.21400211  0.31379600
   0.72601437  0.88548826  0.38400098
   0.23864845  0.61733331  0.90073937
   0.75575252  0.38041203  0.86978832
   0.19797049  0.09165282  0.90136937
   0.67029526  0.86586425  0.91772578
   0.09517714  0.21712947  0.14708211
   0.51603533  0.01736458  0.19425480
   0.94530670  0.74891815  0.21112663
   0.45352133  0.52708755  0.31854790
   0.93158902  0.16715639  0.71381750
   0.44990890  0.98390442  0.77930881
   0.05481690  0.64952268  0.65833180
   0.50301915  0.51850665  0.72424879
   0.57130489  0.40269464  0.21548352
   0.93963940  0.12488228  0.08352508
   0.42912215  0.87566475  0.15792094
   0.91861446  0.60609568  0.13852955
   0.41054915  0.38284575  0.68899957
   0.91135022  0.01600279  0.72214025
   0.52959219  0.90416447  0.68012389
   0.04223066  0.49993846  0.66419710
   0.30645748  0.55906223  0.37317651
   0.54297079  0.50675243  0.45154228
   0.37692952  0.36135359  0.25770805
   0.82428050  0.80973603  0.29675115
   0.35859037  0.53220658  0.83045633
   0.83840276  0.26908032  0.80072112
   0.31576976  0.97641719  0.87624619
   0.73864595  0.80379607  0.78646718
   1.02789684  0.46605491  0.41384513
   0.63054670  0.27082278  0.49605582
   0.38214046  0.07541810  0.29118238
   0.64428302  0.75964739  0.48816428
   0.15169958  0.52084569  1.00778793
   0.62184088  0.36097624  0.97368841
   0.08382257  0.97107336  0.93741847
   0.58673961  0.77205723 -0.00016840
   0.03913215  0.35419719  0.13921919
   0.58504912  0.13898496  0.13948598
   0.01352592  0.88303107  0.16553137
   0.49307856  0.64416368  0.22935577
   0.99745661  0.24162740  0.57462003
   0.43453552  0.11646246  0.69264603
   0.91430997  0.75578383  0.64620657
   0.48449249  0.66300150  0.63834711
   0.14586053  0.23012696  0.29882333
   0.65221421  0.99705310  0.30328215
   0.07150591  0.71908533  0.33420154
   0.74577320  0.29287569  0.26819099
   0.05361061  0.17674395  0.82915648
   0.57054467  0.99761425  0.87174805
   0.15406382  0.66436675  0.78844433
   0.62625627  0.43927511  0.76492360
   0.17929993  0.19759671  0.01523949
   0.75836710  0.93874754  0.03082737
   0.34125275  0.72459854  0.98682122
   0.88229628  0.44683618  0.93504942
   0.35863540  0.24816859  0.47426202
   0.78592937  0.95661076  0.53756767
   0.15649473  0.70209361  0.55131164
   0.78654228  0.45652968  0.50214791
Direct configuration=     9
   0.60924574  0.28283415  0.11687975
   0.95198537  0.98235830  0.03106727
   0.46930464  0.70397717  0.09109190
   0.99046060  0.49082730  0.05448607
   0.45748050  0.26031876  0.59397190
   0.86128656  0.89748877  0.65873969
   0.61647113  0.77044606  0.63706780
   0.94713327  0.41402858  0.56195863
   0.14761492  0.59091606  0.41915665
   0.68973240  0.38801932  0.39215253
   0.34055141  0.21480527  0.31496949
   0.72605724  0.88471053  0.38567663
   0.23625230  0.61630848  0.90088717
   0.75736163  0.38131780  0.86921895
   0.19758984  0.09050120  0.90037748
   0.66944298  0.86515564  0.91644570
   0.09708804  0.21670218  0.14793633
   0.51438891  0.01884443  0.19565809
   0.94283312  0.74772457  0.21007608
   0.45372204  0.52694075  0.31733145
   0.93152366  0.16708743  0.70921659
   0.45008589  0.98570909  0.77987406
   0.05454012  0.64749562  0.65836388
   0.50345004  0.51922826  0.72294133
   0.57119907  0.40687796  0.21702033
   0.93482805  0.12512877  0.08344734
   0.42808648  0.87266507  0.16001463
   0.91564444  0.60946226  0.14070401
   0.40773574  0.37984238  0.69065758
   0.91206998  0.01371555  0.72344361
   0.53294106  0.90425541  0.67849687
   0.04150058  0.49482339  0.66869289
   0.31144968  0.56093248  0.37060065
   0.54540368  0.51008851  0.45212018
   0.37460931  0.36115018  0.25695314
   0.82373697  0.80745753  0.29773299
   0.35585436  0.53186328  0.83171655
   0.83819150  0.26993575  0.80084943
   0.31474076  0.97713438  0.87881099
   0.73894380  0.80427271  0.78624437
   1.03307430  0.46545601  0.41100737
   0.63114061  0.26613271  0.49585405
   0.38095401  0.07523329  0.29418129
   0.64425245  0.75446761  0.49027707
   0.15387569  0.51760662  1.00990364
   0.61918516  0.36432041  0.97160528
   0.08595458  0.96942994  0.93727892
   0.58847632  0.77039353 -0.00233493
   0.03993636  0.35282293  0.14249953
   0.58660979  0.13299392  0.13946198
   0.01588991  0.88230267  0.16798840
   0.49405730  0.64529587  0.23331438
   1.00030168  0.23960394  0.57028430
   0.43317084  0.11636605  0.69256755
   0.91257423  0.75250684  0.64632109
   0.48344802  0.66147490  0.64035941
   0.14080643  0.23104094  0.29981336
   0.65227271  1.00051038  0.30027593
   0.07153761  0.72236143  0.33372385
   0.74707187  0.28972754  0.27191521
   0.05420244  0.17795422  0.82781012
   0.57123556  1.00169689  0.87453907
   0.15229435  0.66329580  0.78796697
   0.62548173  0.44136069  0.76571542
   0.18354359  0.20060153  0.01375065
   0.75881611  0.93834473  0.03312549
   0.34008798  0.72687871  0.98963514
   0.88590296  0.44980896  0.93083599
   0.35373775  0.25148383  0.47164281
   0.78846909  0.95788892  0.53723247
   0.16110804  0.70698763  0.55203797
   0.78308990  0.45792067  0.50341680
Direct configuration=    10
   0.61045091  0.28612896  0.11735517
   0.95006350  0.98291285  0.03020064
   0.47007842  0.70354489  0.09092295
   0.99017363  0.48850869  0.05350042
   0.45617869  0.25962211  0.59112706
   0.86138239  0.89719932  0.65948260
   0.61819365  0.77073007  0.63803825
   0.94855588  0.41532952  0.55908443
   0.14780964  0.58957087  0.41942813
   0.68809625  0.38875133  0.39007686
   0.34014149  0.21593166  0.31626238
   0.72596149  0.88398792  0.38754235
   0.23407284  0.61524586  0.90128368
   0.75866774  0.38225886  0.86863240
   0.19704252  0.08944029  0.89931304
   0.66863870  0.86472216  0.91521512
   0.09883633  0.21608127  0.14883153
   0.51253778  0.01987997  0.19723070
   0.94062957  0.74651360  0.20919100
   0.45404742  0.52640001  0.31612034
   0.93163337  0.16722081  0.70466991
   0.45008067  0.98761414  0.78035437
   0.05430388  0.64572382  0.65845545
   0.50340170  0.52001233  0.72159514
   0.57130586  0.41150903  0.21845310
   0.93009513  0.12575379  0.08357762
   0.42717122  0.86980205  0.16207290
   0.91253345  0.61269454  0.14273394
   0.40485573  0.37676029  0.69211095
   0.91297140  0.01168264  0.72514789
   0.53624612  0.90410108  0.67652464
   0.04062337  0.48941579  0.67327382
   0.31570127  0.56297038  0.36829635
   0.54799193  0.51326475  0.45269116
   0.37191289  0.36088196  0.25608936
   0.82304594  0.80503070  0.29868865
   0.35348265  0.53148877  0.83302613
   0.83781844  0.27048337  0.80069587
   0.31382964  0.97772236  0.88129792
   0.73931320  0.80462261  0.78578152
   1.03818270  0.46478920  0.40832442
   0.63150080  0.26126790  0.49591946
   0.37991456  0.07456991  0.29702048
   0.64443604  0.74944039  0.49187971
   0.15612468  0.51453688  1.01193800
   0.61653117  0.36743186  0.96971937
   0.08791141  0.96745658  0.93705574
   0.59017852  0.76821302 -0.00439488
   0.04026082  0.35221931  0.14562066
   0.58826744  0.12741945  0.13890158
   0.01833096  0.88186460  0.17005120
   0.49525479  0.64670458  0.23697252
   1.00295125  0.23768236  0.56601498
   0.43172641  0.11662148  0.69232716
   0.91108001  0.74891427  0.64634081
   0.48239368  0.65989300  0.64251688
   0.13605153  0.23164453  0.30099672
   0.65233985  1.00385938  0.29746935
   0.07157285  0.72546765  0.33317017
   0.74874302  0.28639639  0.27546670
   0.05512509  0.17920660  0.82633332
   0.57240742  1.00584668  0.87774820
   0.15017055  0.66265144  0.78738121
   0.62555692  0.44336216  0.76658198
   0.18823254  0.20360993  0.01235949
   0.75969971  0.93798846  0.03540719
   0.33862010  0.72904045  0.99232316
   0.88967836  0.45307360  0.92678448
   0.34871771  0.25471667  0.46912311
   0.79080512  0.95927436  0.53649768
   0.16584831  0.71176004  0.55261351
   0.78009861  0.45949587  0.50500288
Direct configuration=    11
   0.61178756  0.28949737  0.11796890
   0.94809024  0.98327995  0.02951254
   0.47074876  0.70334239  0.09084628
   0.98995383  0.48612323  0.05266819
   0.45502625  0.25885469  0.58829717
   0.86138317  0.89662189  0.66013698
   0.61974149  0.77093490  0.63908240
   0.94995464  0.41642999  0.55600484
   0.14809689  0.58848252  0.41956141
   0.68629672  0.38940650  0.38800573
   0.33942100  0.21732316  0.31762011
   0.72571488  0.88334487  0.38953320
   0.23211930  0.61417502  0.90193280
   0.75966496  0.38324459  0.86804174
   0.19631327  0.08851512  0.89820093
   0.66790187  0.86460297  0.91407310
   0.10042559  0.21526186  0.14971349
   0.51043150  0.02040421  0.19898235
   0.93873303  0.74538150  0.20849128
   0.45454829  0.52545914  0.31492284
   0.93191162  0.16753765  0.70022480
   0.44994421  0.98957787  0.78076123
   0.05413190  0.64418472  0.65856040
   0.50285915  0.52079211  0.72023508
   0.57167881  0.41647293  0.21978282
   0.92550439  0.12675213  0.08389149
   0.42640439  0.86713998  0.16410029
   0.90932351  0.61555258  0.14447839
   0.40197792  0.37365920  0.69336844
   0.91407856  0.00999624  0.72726607
   0.53942565  0.90382823  0.67433214
   0.03961938  0.48383528  0.67787791
   0.31899654  0.56520243  0.36634830
   0.55068318  0.51623228  0.45322334
   0.36892062  0.36056399  0.25508118
   0.82216396  0.80250477  0.29964992
   0.35152193  0.53106675  0.83434177
   0.83732883  0.27067780  0.80023259
   0.31315089  0.97815013  0.88365429
   0.73976161  0.80484603  0.78508559
   1.04313036  0.46400492  0.40583200
   0.63162728  0.25631555  0.49621063
   0.37899908  0.07348800  0.29970796
   0.64485670  0.74461293  0.49297046
   0.15840259  0.51165047  1.01389396
   0.61392161  0.37029898  0.96807948
   0.08961272  0.96518755  0.93679388
   0.59180651  0.76551087 -0.00632652
   0.04008043  0.35239730  0.14854035
   0.59011159  0.12261437  0.13768559
   0.02079862  0.88171990  0.17169616
   0.49669758  0.64844536  0.24023764
   1.00538334  0.23588488  0.56182612
   0.43020133  0.11720546  0.69190683
   0.90979774  0.74507937  0.64626231
   0.48136503  0.65836823  0.64478050