alfa-quart                              
           1
     9.832000    0.000000    0.000000
    -4.916000    8.514762    0.000000
     0.000000    0.000000   10.810800
   Si   O 
  24  48
Direct configuration=     1
   0.23485000  0.00000000  0.00000000
   0.00000000  0.23485000  0.33333333
   0.26515000  0.26515000  0.16666667
   0.73485000  0.00000000  0.00000000
   0.50000000  0.23485000  0.33333333
   0.76515000  0.26515000  0.16666667
   0.23485000  0.50000000  0.00000000
   0.00000000  0.73485000  0.33333333
   0.26515000  0.76515000  0.16666667
   0.73485000  0.50000000  0.00000000
   0.50000000  0.73485000  0.33333333
   0.76515000  0.76515000  0.16666667
   0.23485000  0.00000000  0.50000000
   0.00000000  0.23485000  0.83333333
   0.26515000  0.26515000  0.66666667
   0.73485000  0.00000000  0.50000000
   0.50000000  0.23485000  0.83333333
   0.76515000  0.26515000  0.66666667
   0.23485000  0.50000000  0.50000000
   0.00000000  0.73485000  0.83333333
   0.26515000  0.76515000  0.66666667
   0.73485000  0.50000000  0.50000000
   0.50000000  0.73485000  0.83333333
   0.76515000  0.76515000  0.66666667
   0.20675000  0.13345000  0.05955000
   0.13345000  0.20675000  0.27378333
   0.36655000  0.07330000  0.39288333
   0.29325000  0.42670000  0.10711667
   0.42670000  0.29325000  0.22621667
   0.07330000  0.36655000  0.44045000
   0.70675000  0.13345000  0.05955000
   0.63345000  0.20675000  0.27378333
   0.86655000  0.07330000  0.39288333
   0.79325000  0.42670000  0.10711667
   0.92670000  0.29325000  0.22621667
   0.57330000  0.36655000  0.44045000
   0.20675000  0.63345000  0.05955000
   0.13345000  0.70675000  0.27378333
   0.36655000  0.57330000  0.39288333
   0.29325000  0.92670000  0.10711667
   0.42670000  0.79325000  0.22621667
   0.07330000  0.86655000  0.44045000
   0.70675000  0.63345000  0.05955000
   0.63345000  0.70675000  0.27378333
   0.86655000  0.57330000  0.39288333
   0.79325000  0.92670000  0.10711667
   0.92670000  0.79325000  0.22621667
   0.57330000  0.86655000  0.44045000
   0.20675000  0.13345000  0.55955000
   0.13345000  0.20675000  0.77378333
   0.36655000  0.07330000  0.89288333
   0.29325000  0.42670000  0.60711667
   0.42670000  0.29325000  0.72621667
   0.07330000  0.36655000  0.94045000
   0.70675000  0.13345000  0.55955000
   0.63345000  0.20675000  0.77378333
   0.86655000  0.07330000  0.89288333
   0.79325000  0.42670000  0.60711667
   0.92670000  0.29325000  0.72621667
   0.57330000  0.36655000  0.94045000
   0.20675000  0.63345000  0.55955000
   0.13345000  0.70675000  0.77378333
   0.36655000  0.57330000  0.89288333
   0.29325000  0.92670000  0.60711667
   0.42670000  0.79325000  0.72621667
   0.07330000  0.86655000  0.94045000
   0.70675000  0.63345000  0.55955000
   0.63345000  0.70675000  0.77378333
   0.86655000  0.57330000  0.89288333
   0.79325000  0.92670000  0.60711667
   0.92670000  0.79325000  0.72621667
   0.57330000  0.86655000  0.94045000
Direct configuration=     2
   0.23474204  0.00001633  0.00003564
   0.00024014  0.23491267  0.33337115
   0.26537575  0.26535620  0.16654740
   0.73491477  0.00024774 -0.00014549
   0.50002226  0.23477747  0.33333121
   0.76530350  0.26518024  0.16684704
   0.23502188  0.50025218 -0.00007162
  -0.00017571  0.73474188  0.33331531
   0.26532537  0.76535063  0.16680095
   0.73500695  0.49996390 -0.00004752
   0.50015044  0.73472338  0.33327840
   0.76516444  0.76528994  0.16686823
   0.23479398  0.00027292  0.50010939
   0.00004399  0.23506631  0.83334662
   0.26524273  0.26529357  0.66668777
   0.73467711 -0.00010207  0.49985042
   0.50007595  0.23498941  0.83325689
   0.76494280  0.26493206  0.66668115
   0.23488499  0.50011801  0.49986803
   0.00001359  0.73483109  0.83347924
   0.26489175  0.76475953  0.66686207
   0.73453074  0.49960596  0.50021619
   0.50010245  0.73486966  0.83304721
   0.76517079  0.76503998  0.66653123
   0.20656338  0.13339963  0.05942422
   0.13337967  0.20691518  0.27387995
   0.36689605  0.07338210  0.39315820
   0.29317789  0.42709828  0.10708556
   0.42664492  0.29300141  0.22610255
   0.07319518  0.36670669  0.44051061
   0.70675357  0.13344135  0.05928408
   0.63359094  0.20645955  0.27400277
   0.86696919  0.07365389  0.39301764
   0.79339383  0.42673332  0.10705529
   0.92634420  0.29314290  0.22626258
   0.57310387  0.36635254  0.44034548
   0.20678022  0.63321763  0.05957748
   0.13361721  0.70672063  0.27376160
   0.36650538  0.57366872  0.39266019
   0.29317428  0.92669490  0.10711389
   0.42685727  0.79350330  0.22630530
   0.07313459  0.86614528  0.44026277
   0.70664910  0.63337394  0.05923826
   0.63364829  0.70667636  0.27376227
   0.86641365  0.57296945  0.39331422
   0.79306112  0.92620851  0.10712276
   0.92698822  0.79355813  0.22613729
   0.57300452  0.86668130  0.44073595
   0.20664082  0.13368700  0.55935342
   0.13310704  0.20662374  0.77376391
   0.36649626  0.07302955  0.89256505
   0.29352554  0.42690529  0.60703091
   0.42687616  0.29346242  0.72640339
   0.07351936  0.36634989  0.94058198
   0.70627184  0.13329312  0.55939291
   0.63335254  0.20689529  0.77349736
   0.86628517  0.07339388  0.89301532
   0.79280575  0.42643164  0.60728101
   0.92653471  0.29341054  0.72624534
   0.57360775  0.36676602  0.94069629
   0.20692035  0.63371287  0.55926102
   0.13361930  0.70680586  0.77369297
   0.36652994  0.57297566  0.89302515
   0.29296362  0.92627612  0.60696320
   0.42658661  0.79301061  0.72609677
   0.07343906  0.86637998  0.94062889
   0.70697054  0.63303692  0.55972164
   0.63292759  0.70655531  0.77395967
   0.86687027  0.57354557  0.89299755
   0.79327231  0.92683302  0.60732194
   0.92672963  0.79316745  0.72614912
   0.57348914  0.86688895  0.94011683
Direct configuration=     3
   0.23463538  0.00003278  0.00007092
   0.00047963  0.23497652  0.33340886
   0.26560022  0.26556200  0.16642805
   0.73497959  0.00049425 -0.00029034
   0.50004470  0.23470515  0.33332893
   0.76545551  0.26520955  0.16702656
   0.23519392  0.50050388 -0.00014329
  -0.00035141  0.73463336  0.33329724
   0.26549987  0.76555004  0.16693469
   0.73516478  0.49992849 -0.00009458
   0.50030099  0.73459847  0.33322357
   0.76517854  0.76542815  0.16706849
   0.23473813  0.00054428  0.50021839
   0.00008726  0.23528264  0.83336010
   0.26533466  0.26543659  0.66670913
   0.73450536 -0.00020345  0.49970131
   0.50015196  0.23512912  0.83318133
   0.76473517  0.26471364  0.66669512
   0.23492051  0.50023617  0.49973622
   0.00002766  0.73481303  0.83362469
   0.26463364  0.76436944  0.66705646
   0.73421241  0.49921165  0.50043191
   0.50020370  0.73488952  0.83276240
   0.76519044  0.76492933  0.66639661
   0.20637932  0.13335129  0.05930085
   0.13331259  0.20708289  0.27397339
   0.36724007  0.07346493  0.39343503
   0.29310394  0.42749338  0.10705390
   0.42658895  0.29275070  0.22599041
   0.07309175  0.36686220  0.44056912
   0.70675963  0.13343541  0.05902150
   0.63373245  0.20617167  0.27422016
   0.86738574  0.07400735  0.39315445
   0.79353543  0.42676500  0.10699249
   0.92598956  0.29303358  0.22631146
   0.57290910  0.36615463  0.44023946
   0.20681294  0.63298860  0.05960783
   0.13378431  0.70669334  0.27373844
   0.36645896  0.57403711  0.39243941
   0.29309653  0.92668902  0.10710919
   0.42701408  0.79375430  0.22639593
   0.07297217  0.86574199  0.44007493
   0.70655120  0.63330037  0.05892997
   0.63384663  0.70660464  0.27374041
   0.86627734  0.57264136  0.39374577
   0.79286986  0.92571836  0.10712574
   0.92727475  0.79386338  0.22605996
   0.57270976  0.86680982  0.44101856
   0.20653403  0.13392545  0.55915925
   0.13276665  0.20650003  0.77374162
   0.36644120  0.07276077  0.89224935
   0.29379867  0.42710942  0.60694312
   0.42704998  0.29367275  0.72659114
   0.07373952  0.36614887  0.94071193
   0.70579655  0.13313745  0.55923794
   0.63325557  0.20704229  0.77321034
   0.86602129  0.07349028  0.89314793
   0.79235951  0.42616201  0.60744361
   0.92636881  0.29356866  0.72627624
   0.57391474  0.36697861  0.94093913
   0.20709270  0.63397622  0.55897420
   0.13378789  0.70686331  0.77360200
   0.36651055  0.57265452  0.89316752
   0.29267481  0.92585174  0.60680792
   0.42647196  0.79276901  0.72597867
   0.07357867  0.86620862  0.94080551
   0.70719257  0.63262652  0.55989576
   0.63241019  0.70636310  0.77413159
   0.86718885  0.57379129  0.89311365
   0.79329195  0.92696447  0.60752473
   0.92675807  0.79308257  0.72608387
   0.57367868  0.86722598  0.93978158
Direct configuration=     4
   0.23453077  0.00004947  0.00010546
   0.00071782  0.23504219  0.33344639
   0.26582268  0.26576754  0.16630852
   0.73504395  0.00073832 -0.00043392
   0.50006752  0.23463267  0.33332634
   0.76560508  0.26523755  0.16720437
   0.23536574  0.50075462 -0.00021504
  -0.00052708  0.73452350  0.33327911
   0.26567319  0.76574753  0.16706737
   0.73532382  0.49989444 -0.00014079
   0.50045176  0.73447642  0.33316895
   0.76519258  0.76556347  0.16726619
   0.23468210  0.00081255  0.50032663
   0.00012911  0.23549851  0.83337395
   0.26542556  0.26557907  0.66673097
   0.73433534 -0.00030344  0.49955315
   0.50022812  0.23526889  0.83310750
   0.76452716  0.26449474  0.66670808
   0.23495654  0.50035461  0.49960472
   0.00004266  0.73479612  0.83376924
   0.26437641  0.76398066  0.66724883
   0.73389538  0.49881680  0.50064668
   0.50030256  0.73490930  0.83248019
   0.76520838  0.76481796  0.66626356
   0.20619818  0.13330586  0.05918036
   0.13325085  0.20725343  0.27406239
   0.36758121  0.07354815  0.39371387
   0.29302856  0.42788320  0.10702304
   0.42653229  0.29249799  0.22588029
   0.07299001  0.36701653  0.44062535
   0.70676844  0.13343374  0.05876366
   0.63387395  0.20588667  0.27443537
   0.86779818  0.07435889  0.39329437
   0.79367478  0.42679451  0.10692875
   0.92563835  0.29292205  0.22636435
   0.57271594  0.36595696  0.44013235
   0.20684841  0.63276511  0.05964201
   0.13395005  0.70666799  0.27371438
   0.36641005  0.57440374  0.39222147
   0.29301693  0.92668270  0.10710260
   0.42717107  0.79400294  0.22648867
   0.07281457  0.86534268  0.43988778
   0.70645703  0.63323060  0.05862661
   0.63404394  0.70653456  0.27371887
   0.86614221  0.57231706  0.39417675
   0.79267612  0.92523195  0.10712447
   0.92755900  0.79416514  0.22598481
   0.57241534  0.86693397  0.44129646
   0.20642979  0.13416567  0.55896801
   0.13243026  0.20637918  0.77371553
   0.36638463  0.07249426  0.89193686
   0.29406925  0.42731232  0.60685316
   0.42722020  0.29388115  0.72677905
   0.07396019  0.36594712  0.94083976
   0.70532476  0.13298304  0.55908532
   0.63315843  0.20719052  0.77292316
   0.86576050  0.07359063  0.89327986
   0.79191149  0.42589094  0.60760464
   0.92620280  0.29372416  0.72630963
   0.57421912  0.36718549  0.94117698
   0.20726686  0.63423939  0.55868976
   0.13395394  0.70692171  0.77351176
   0.36649362  0.57233863  0.89330911
   0.29238338  0.92542749  0.60665093
   0.42635587  0.79252521  0.72586223
   0.07371827  0.86603572  0.94097951
   0.70741536  0.63222034  0.56007291
   0.63190164  0.70617356  0.77429658
   0.86750520  0.57403625  0.89323161
   0.79330850  0.92709387  0.60772445
   0.92678522  0.79299529  0.72602129
   0.57386794  0.86756034  0.93944403
Direct configuration=     5
   0.23442895  0.00006654  0.00013894
   0.00095408  0.23511029  0.33348367
   0.26604242  0.26597298  0.16618871
   0.73510729  0.00097874 -0.00057560
   0.50009086  0.23455964  0.33332330
   0.76575127  0.26526386  0.16737962
   0.23553695  0.50100391 -0.00028692
  -0.00070269  0.73441139  0.33326087
   0.26584504  0.76594245  0.16719848
   0.73548438  0.49986244 -0.00018572
   0.50060284  0.73435834  0.33311460
   0.76520679  0.76569479  0.16746009
   0.23462556  0.00107621  0.50043372
   0.00016888  0.23571343  0.83338836
   0.26551520  0.26572103  0.66675355
   0.73416760 -0.00040139  0.49940639
   0.50030448  0.23540846  0.83303622
   0.76431891  0.26427543  0.66671953
   0.23499305  0.50047347  0.49947364
   0.00005904  0.73478066  0.83391245
   0.26412083  0.76359417  0.66743814
   0.73357996  0.49842112  0.50086005
   0.50039781  0.73492871  0.83220187
   0.76522409  0.76470581  0.66613284
   0.20602026  0.13326420  0.05906322
   0.13319648  0.20742707  0.27414578
   0.36791862  0.07363142  0.39399478
   0.29295216  0.42826572  0.10699434
   0.42647512  0.29224341  0.22577224
   0.07289026  0.36716966  0.44067911
   0.70678022  0.13343783  0.05851193
   0.63401487  0.20560486  0.27464830
   0.86820506  0.07470704  0.39343797
   0.79381191  0.42682130  0.10686458
   0.92529281  0.29280836  0.22642228
   0.57252466  0.36576027  0.44002460
   0.20688684  0.63254925  0.05968091
   0.13411319  0.70664439  0.27368990
   0.36635804  0.57476722  0.39200680
   0.29293571  0.92667624  0.10709413
   0.42732884  0.79424919  0.22658359
   0.07266359  0.86494988  0.43970260
   0.70636730  0.63316581  0.05832961
   0.63423911  0.70646575  0.27369878
   0.86600940  0.57199785  0.39460595
   0.79247981  0.92475166  0.10711781
   0.92784038  0.79446280  0.22591195
   0.57212094  0.86705219  0.44156831
   0.20632824  0.13440794  0.55878015
   0.13209922  0.20626149  0.77368475
   0.36632643  0.07223061  0.89162822
   0.29433711  0.42751389  0.60676094
   0.42738560  0.29408776  0.72696625
   0.07418113  0.36574491  0.94096536
   0.70485709  0.13282994  0.55893524
   0.63306044  0.20733944  0.77263668
   0.86550492  0.07369634  0.89340979
   0.79146195  0.42561821  0.60776430
   0.92603711  0.29387690  0.72634580
   0.57451911  0.36738448  0.94140835
   0.20744259  0.63450171  0.55840794
   0.13411559  0.70698038  0.77342357
   0.36648089  0.57202998  0.89344859
   0.29208914  0.92500396  0.60649234
   0.42623813  0.79227924  0.72574730
   0.07385735  0.86586111  0.94115056
   0.70763816  0.63181988  0.56025362
   0.63140567  0.70598685  0.77445226
   0.86781879  0.57427952  0.89335140
   0.79332156  0.92722072  0.60792057
   0.92681098  0.79290552  0.72596173
   0.57405626  0.86789130  0.93910405
Direct configuration=     6
   0.23433064  0.00008412  0.00017100
   0.00118779  0.23518138  0.33352066
   0.26625874  0.26617841  0.16606856
   0.73516907  0.00121435 -0.00071477
   0.50011486  0.23448569  0.33331965
   0.76589307  0.26528813  0.16755147
   0.23570714  0.50125121 -0.00035894
  -0.00087821  0.73429615  0.33324250
   0.26601516  0.76613420  0.16732755
   0.73564675  0.49983313 -0.00022896
   0.50075430  0.73424534  0.33306065
   0.76522149  0.76582104  0.16764903
   0.23456818  0.00133382  0.50053928
   0.00020591  0.23592690  0.83340348
   0.26560337  0.26586249  0.66677710
   0.73400279 -0.00049656  0.49926153
   0.50038110  0.23554756  0.83296832
   0.76411055  0.26405576  0.66672898
   0.23503001  0.50059287  0.49934313
   0.00007726  0.73476693  0.83405387
   0.26386759  0.76321088  0.66762340
   0.73326649  0.49802434  0.50107151
   0.50048826  0.73494752  0.83192868
   0.76523711  0.76459285  0.66600513
   0.20584587  0.13322709  0.05894985
   0.13315145  0.20760407  0.27422237
   0.36825147  0.07371440  0.39427778
   0.29287518  0.42863898  0.10696911
   0.42641763  0.29198707  0.22566630
   0.07279280  0.36732159  0.44073026
   0.70679520  0.13344911  0.05826764
   0.63415464  0.20532655  0.27485883
   0.86860498  0.07505035  0.39358579
   0.79394681  0.42684487  0.10680047
   0.92495517  0.29269255  0.22648622
   0.57233555  0.36556526  0.43991661
   0.20692845  0.63234308  0.05972538
   0.13427255  0.70662238  0.27366549
   0.36630229  0.57512617  0.39179581
   0.29285306  0.92666993  0.10708383
   0.42748796  0.79449299  0.22668072
   0.07252096  0.86456604  0.43952064
   0.70628269  0.63310714  0.05804033
   0.63443107  0.70639791  0.27368123
   0.86588000  0.57168497  0.39503218
   0.79228085  0.92427985  0.10710467
   0.92811828  0.79475576  0.22584149
   0.57182627  0.86716299  0.44183280
   0.20622953  0.13465253  0.55859614
   0.13177481  0.20614725  0.77364840
   0.36626645  0.07197044  0.89132404
   0.29460212  0.42771407  0.60666635
   0.42754499  0.29429278  0.72715186
   0.07440207  0.36554249  0.94108866
   0.70439418  0.13267821  0.55878790
   0.63296092  0.20748851  0.77235178
   0.86525665  0.07380879  0.89353646
   0.79101113  0.42534364  0.60792276
   0.92587221  0.29402669  0.72638501
   0.57481293  0.36757344  0.94163182
   0.20761967  0.63476255  0.55812898
   0.13427100  0.70703866  0.77333876
   0.36647404  0.57173049  0.89358464
   0.29179192  0.92458175  0.60633229
   0.42611856  0.79203113  0.72563376
   0.07399540  0.86568465  0.94131834
   0.70786026  0.63142662  0.56043843
   0.63092595  0.70580307  0.77459629
   0.86812909  0.57452019  0.89347298
   0.79333072  0.92734453  0.60811255
   0.92683524  0.79281320  0.72590552
   0.57424300  0.86821817  0.93876148
Direct configuration=     7
   0.23423649  0.00010232  0.00020133
   0.00141834  0.23525599  0.33355731
   0.26647100  0.26638392  0.16594799
   0.73522870  0.00144398 -0.00085087
   0.50013966  0.23441045  0.33331524
   0.76602957  0.26531005  0.16771914
   0.23587588  0.50149606 -0.00043114
  -0.00105364  0.73417690  0.33322397
   0.26618321  0.76632217  0.16745409
   0.73581122  0.49980718 -0.00027010
   0.50090624  0.73413848  0.33300720
   0.76523697  0.76594119  0.16783185
   0.23450965  0.00158397  0.50064297
   0.00023959  0.23613845  0.83341945
   0.26568985  0.26600350  0.66680179
   0.73384142 -0.00058833  0.49911900
   0.50045800  0.23568587  0.83290456
   0.76390218  0.26383579  0.66673592
   0.23506739  0.50071294  0.49921333
   0.00009772  0.73475525  0.83419310
   0.26361740  0.76283165  0.66780362
   0.73295532  0.49762624  0.50128060
   0.50057286  0.73496550  0.83166185
   0.76524703  0.76447915  0.66588113
   0.20567531  0.13319531  0.05884064
   0.13311764  0.20778464  0.27429106
   0.36857899  0.07379679  0.39456290
   0.29279806  0.42900110  0.10694861
   0.42636001  0.29172910  0.22556248
   0.07269793  0.36747231  0.44077862
   0.70681355  0.13346892  0.05803205
   0.63429271  0.20505204  0.27506681
   0.86899658  0.07538742  0.39373834
   0.79407953  0.42686473  0.10673690
   0.92462761  0.29257470  0.22655709
   0.57214890  0.36537267  0.43980883
   0.20697342  0.63214856  0.05977619
   0.13442698  0.70660180  0.27364159
   0.36624220  0.57547925  0.39158891
   0.29276922  0.92666403  0.10707174
   0.42764899  0.79473432  0.22678008
   0.07238834  0.86419353  0.43934312
   0.70620383  0.63305563  0.05776006
   0.63461880  0.70633069  0.27366727
   0.86575507  0.57137965  0.39545427
   0.79207920  0.92381879  0.10708403
   0.92839210  0.79504343  0.22577352
   0.57153110  0.86726498  0.44208869
   0.20613378  0.13489966  0.55841641
   0.13145829  0.20603673  0.77360569
   0.36620458  0.07171436  0.89102492
   0.29486413  0.42791278  0.60656931
   0.42769723  0.29449637  0.72733508
   0.07462281  0.36534015  0.94120961
   0.70393662  0.13252790  0.55864347
   0.63285918  0.20763720  0.77206935
   0.86501774  0.07392931  0.89365858
   0.79055930  0.42506705  0.60808024
   0.92570850  0.29417340  0.72642748
   0.57509892  0.36775037  0.94184599
   0.20779788  0.63502127  0.55785312
   0.13441841  0.70709587  0.77325863
   0.36647469  0.57144199  0.89371600
   0.29149157  0.92416144  0.60617091
   0.42599698  0.79178092  0.72552144
   0.07413194  0.86550620  0.94148256
   0.70808093  0.63104200  0.56062780
   0.63046596  0.70562230  0.77472649
   0.86843556  0.57475732  0.89359633
   0.79333559  0.92746481  0.60829988
   0.92685790  0.79271828  0.72585300
   0.57442756  0.86854030  0.93841619
Direct configuration=     8
   0.23414716  0.00012126  0.00022963
   0.00164514  0.23533468  0.33359362
   0.26667854  0.26658961  0.16582693
   0.73528561  0.00166657 -0.00098333
   0.50016541  0.23433354  0.33330992
   0.76615989  0.26532928  0.16788188
   0.23604281  0.50173796 -0.00050352
  -0.00122893  0.73405281  0.33320526
   0.26634898  0.76650582  0.16757767
   0.73597803  0.49978521 -0.00030871
   0.50105872  0.73403876  0.33295433
   0.76525351  0.76605427  0.16800748
   0.23444971  0.00182531  0.50074445
   0.00026929  0.23634756  0.83343636
   0.26577443  0.26614407  0.66682782
   0.73368401 -0.00067608  0.49897926
   0.50053517  0.23582308  0.83284568
   0.76369403  0.26361566  0.66673987
   0.23510516  0.50083375  0.49908436
   0.00012082  0.73474591  0.83432971
   0.26337093  0.76245737  0.66797780
   0.73264679  0.49722661  0.50148689
   0.50065056  0.73498251  0.83140251
   0.76525349  0.76436469  0.66576149
   0.20550890  0.13316957  0.05873596
   0.13309683  0.20796900  0.27435080
   0.36890040  0.07387830  0.39485014
   0.29272123  0.42935032  0.10693404
   0.42630242  0.29146964  0.22546082
   0.07260594  0.36762183  0.44082404
   0.70683545  0.13349854  0.05780637
   0.63442856  0.20478164  0.27527213
   0.86937853  0.07571691  0.39389610
   0.79421008  0.42688040  0.10667435
   0.92431222  0.29245491  0.22663578
   0.57196499  0.36518323  0.43970166
   0.20702191  0.63196755  0.05983410
   0.13457534  0.70658246  0.27361865
   0.36617719  0.57582516  0.39138645
   0.29268440  0.92665882  0.10705792
   0.42781244  0.79497314  0.22688167
   0.07226726  0.86383461  0.43917120
   0.70613135  0.63301223  0.05749002
   0.63480126  0.70626375  0.27365795
   0.86563564  0.57108301  0.39587108
   0.79187481  0.92337065  0.10705489
   0.92866127  0.79532524  0.22570813
   0.57123524  0.86735682  0.44233478
   0.20604112  0.13514954  0.55824138
   0.13115084  0.20593020  0.77355585
   0.36614072  0.07146294  0.89073144
   0.29512299  0.42810993  0.60646972
   0.42784121  0.29469871  0.72751509
   0.07484313  0.36513819  0.94132815
   0.70348504  0.13237904  0.55850216
   0.63275456  0.20778497  0.77179022
   0.86479018  0.07405915  0.89377494
   0.79010675  0.42478825  0.60823691
   0.92554639  0.29431687  0.72647344
   0.57537549  0.36791333  0.94204958
   0.20797699  0.63527727  0.55758060
   0.13455606  0.70715136  0.77318446
   0.36648438  0.57116625  0.89384145
   0.29118794  0.92374359  0.60600834
   0.42587319  0.79152864  0.72541021
   0.07426651  0.86532567  0.94164295
   0.70829948  0.63066738  0.56082219
   0.63002905  0.70544456  0.77484076
   0.86873768  0.57499001  0.89372143
   0.79333579  0.92758107  0.60848203
   0.92687886  0.79262071  0.72580447
   0.57460936  0.86885707  0.93806807
Direct configuration=     9
   0.23406323  0.00014105  0.00025559
   0.00186762  0.23541791  0.33362959
   0.26688082  0.26679559  0.16570531
   0.73533924  0.00188105 -0.00111162
   0.50019219  0.23425461  0.33330359
   0.76628315  0.26534551  0.16803898
   0.23620750  0.50197645 -0.00057610
  -0.00140403  0.73392314  0.33318638
   0.26651222  0.76668466  0.16769792
   0.73614741  0.49976780 -0.00034444
   0.50121178  0.73394714  0.33290215
   0.76527145  0.76615940  0.16817486
   0.23438810  0.00205652  0.50084343
   0.00029447  0.23655377  0.83345434
   0.26585692  0.26628426  0.66685535
   0.73353105 -0.00075922  0.49884274
   0.50061261  0.23595884  0.83279237
   0.76348624  0.26339543  0.66674039
   0.23514325  0.50095539  0.49895639
   0.00014697  0.73473921  0.83446326
   0.26312891  0.76208895  0.66814495
   0.73234117  0.49682529  0.50168990
   0.50072035  0.73499835  0.83115178
   0.76525616  0.76424954  0.66564679
   0.20534692  0.13315053  0.05863614
   0.13309068  0.20815732  0.27440063
   0.36921499  0.07395864  0.39513951
   0.29264512  0.42968497  0.10692655
   0.42624503  0.29120879  0.22536133
   0.07251714  0.36777015  0.44086640
   0.70686104  0.13353913  0.05759175
   0.63456169  0.20451562  0.27547465
   0.86974961  0.07603755  0.39405953
   0.79433848  0.42689145  0.10661329
   0.92401102  0.29233327  0.22672310
   0.57178411  0.36499763  0.43959551
   0.20707407  0.63180181  0.05989975
   0.13471659  0.70656418  0.27359709
   0.36610673  0.57616266  0.39118879
   0.29259882  0.92665452  0.10704245
   0.42797875  0.79520944  0.22698546
   0.07215917  0.86349145  0.43900597
   0.70606581  0.63297778  0.05723134
   0.63497753  0.70619678  0.27365424
   0.86552266  0.57079615  0.39628154
   0.79166765  0.92293749  0.10701635
   0.92892517  0.79560061  0.22564540
   0.57093854  0.86743728  0.44256998
   0.20595169  0.13540233  0.55807139
   0.13085354  0.20582796  0.77349818
   0.36607478  0.07121678  0.89044412
   0.29537855  0.42830546  0.60636753
   0.42797589  0.29489995  0.72769114
   0.07506287  0.36493697  0.94144427
   0.70304001  0.13223169  0.55836413
   0.63264641  0.20793130  0.77151525
   0.86457584  0.07419952  0.89388436
   0.78965374  0.42450706  0.60839298
   0.92538625  0.29445696  0.72652309
   0.57564115  0.36806053  0.94224139
   0.20815675  0.63552997  0.55731168
   0.13468232  0.70720445  0.77311748
   0.36650455  0.57090492  0.89395984
   0.29088093  0.92332878  0.60584476
   0.42574701  0.79127435  0.72529992
   0.07439868  0.86514297  0.94179926
   0.70851522  0.63030404  0.56102199
   0.62961837  0.70526986  0.77493719
   0.86903491  0.57521734  0.89384826
   0.79333096  0.92769282  0.60865854
   0.92689804  0.79252044  0.72576025
   0.57478786  0.86916789  0.93771704
Direct configuration=    10
   0.23398530  0.00016179  0.00027892
   0.00208529  0.23550613  0.33366522
   0.26707726  0.26700194  0.16558306
   0.73538906  0.00208641 -0.00123527
   0.50022007  0.23417326  0.33329612
   0.76639853  0.26535848  0.16818978
   0.23636956  0.50221103 -0.00064890
  -0.00157882  0.73378722  0.33316733
   0.26667275  0.76685826  0.16781452
   0.73631958  0.49975552 -0.00037695
   0.50136544  0.73386450  0.33285074
   0.76529108  0.76625577  0.16833302
   0.23432459  0.00227640  0.50093962
   0.00031465  0.23675664  0.83347346
   0.26593713  0.26642410  0.66688452
   0.73338299 -0.00083720  0.49870987
   0.50069026  0.23609285  0.83274525
   0.76327894  0.26317513  0.66673709
   0.23518161  0.50107795  0.49882954
   0.00017654  0.73473546  0.83459334
   0.26289206  0.76172726  0.66830412
   0.73203870  0.49642211  0.50188922
   0.50078130  0.73501287  0.83091067
   0.76525479  0.76413376  0.66553756
   0.20518967  0.13313879  0.05854146
   0.13310073  0.20834978  0.27443966
   0.36952209  0.07403756  0.39543097
   0.29257018  0.43000353  0.10692717
   0.42618802  0.29094668  0.22526401
   0.07243179  0.36791728  0.44090555
   0.70689044  0.13359176  0.05738925
   0.63469162  0.20425428  0.27567425
   0.87010864  0.07634813  0.39422901
   0.79446477  0.42689748  0.10655416
   0.92372586  0.29220988  0.22681979
   0.57160656  0.36481659  0.43949081
   0.20713003  0.63165294  0.05997374
   0.13484972  0.70654680  0.27357729
   0.36603035  0.57649058  0.39099622
   0.29251273  0.92665134  0.10702542
   0.42814835  0.79544318  0.22709136
   0.07206539  0.86316606  0.43884846
   0.70600775  0.63295303  0.05698508
   0.63514670  0.70612946  0.27365706
   0.86541702  0.57052007  0.39668458
   0.79145770  0.92252127  0.10696757
   0.92918322  0.79586901  0.22558539
   0.57064093  0.86750522  0.44279326
   0.20586560  0.13565813  0.55790682
   0.13056738  0.20573024  0.77343207
   0.36600668  0.07097646  0.89016351
   0.29563067  0.42849928  0.60626267
   0.42810029  0.29510026  0.72786253
   0.07528190  0.36473684  0.94155797
   0.70260212  0.13208589  0.55822957
   0.63253410  0.20807563  0.77124524
   0.86437652  0.07435150  0.89398571
   0.78920057  0.42422333  0.60854861
   0.92522842  0.29459354  0.72657661
   0.57589451  0.36819036  0.94242030
   0.20833691  0.63577880  0.55704661
   0.13479563  0.70725451  0.77305886
   0.36653654  0.57065954  0.89407009
   0.29057041  0.92291752  0.60568037
   0.42561825  0.79101807  0.72519045
   0.07452806  0.86495809  0.94195129
   0.70872748  0.62995315  0.56122754
   0.62923678  0.70509820  0.77501399
   0.86932674  0.57543844  0.89397682
   0.79332072  0.92779959  0.60882894
   0.92691533  0.79241746  0.72572062
   0.57496254  0.86947226  0.93736304
Direct configuration=    11
   0.23391390  0.00018361  0.00029934
   0.00229766  0.23559970  0.33370054
   0.26726735  0.26720871  0.16546016
   0.73543453  0.00228171 -0.00135387
   0.50024909  0.23408915  0.33328740
   0.76650531  0.26536793  0.16833368
   0.23652864  0.50244126 -0.00072191
  -0.00175320  0.73364443  0.33314815
   0.26683043  0.76702621  0.16792711
   0.73649465  0.49974890 -0.00040595
   0.50151964  0.73379164  0.33280020
   0.76531270  0.76634265  0.16848108
   0.23425899  0.00248385  0.50103276
   0.00032940  0.23695573  0.83349379
   0.26601486  0.26656365  0.66691544
   0.73324023 -0.00090955  0.49858104
   0.50076806  0.23622473  0.83270493
   0.76307226  0.26295484  0.66672957
   0.23522024  0.50120149  0.49870395
   0.00020981  0.73473489  0.83471952
   0.26266098  0.76137307  0.66845437
   0.73173968  0.49601697  0.50208441
   0.50083265  0.73502595  0.83068010
   0.76524917  0.76401745  0.66543429
   0.20503741  0.13313487  0.05845217
   0.13312836  0.20854651  0.27446711
   0.36982107  0.07411482  0.39572449
   0.29249683  0.43030464  0.10693687
   0.42613153  0.29068344  0.22516887
   0.07235017  0.36806324  0.44094141
   0.70692375  0.13365734  0.05719985
   0.63481791  0.20399790  0.27587082
   0.87045455  0.07664755  0.39440492
   0.79458898  0.42689815  0.10649741
   0.92345850  0.29208488  0.22692649
   0.57143261  0.36464078  0.43938793
   0.20718991  0.63152244  0.06005656
   0.13497379  0.70653013  0.27355961
   0.36594761  0.57680780  0.39080901
   0.29242635  0.92664949  0.10700695
   0.42832158  0.79567438  0.22719929
   0.07198710  0.86286030  0.43869963
   0.70595766  0.63293860  0.05675222
   0.63530798  0.70606153  0.27366725
   0.86531957  0.57025572  0.39707921
   0.79124496  0.92212382  0.10690778
   0.92943484  0.79612991  0.22552817
   0.57034243  0.86755965  0.44300369
   0.20578299  0.13591702  0.55774796
   0.13029323  0.20563732  0.77335695
   0.36593638  0.07074255  0.88989010
   0.29587920  0.42869133  0.60615508
   0.42821352  0.29529979  0.72802862
   0.07550011  0.36453824  0.94166925
   0.70217189  0.13194169  0.55809862
   0.63241701  0.20821742  0.77098100